# vtk DataFile Version 2.0
Unstructured Grid Example
ASCII
DATASET UNSTRUCTURED_GRID
POINTS 136 float
-0.001888 -0.001910 5.958920 
-0.001888 4.041100 10.001900 
3.994550 -0.001884 9.957020 
10.000000 9.955130 -0.000006 
-0.000940 9.956160 -0.001043 
-0.002389 9.959610 10.002400 
9.956410 10.001300 10.001100 
10.001500 -0.001370 0.043331 
-0.002382 -0.002379 0.040414 
9.959640 -0.002416 10.002400 
4.736980 0.000000 5.540020 
4.170710 3.861350 6.118810 
4.738970 4.614720 9.999990 
2.444270 2.130350 7.684710 
-0.000010 4.673030 5.345800 
0.000000 7.456440 0.000000 
-0.000000 1.554530 6.328040 
3.656980 0.000000 8.413640 
0.000000 4.957850 0.000000 
2.201040 4.444580 5.593760 
2.862460 0.000000 7.227130 
0.000000 7.800860 10.000000 
0.000000 0.000000 4.231510 
1.599310 3.650940 10.000000 
2.863710 2.771620 10.000000 
4.549220 4.353530 7.888690 
7.808530 0.000000 10.000000 
3.691790 1.511710 10.000000 
4.980230 10.000000 10.000000 
10.000000 10.000000 7.543910 
0.000000 0.000000 2.201330 
2.502770 0.000000 0.000000 
0.000000 2.483810 0.000000 
0.000000 10.000000 2.538830 
0.000000 10.000000 5.037300 
0.000000 10.000000 7.511780 
0.000000 3.670360 8.442320 
2.498700 10.000000 10.000000 
0.000000 5.772890 10.000000 
1.600650 0.000000 6.349680 
0.000000 2.798930 7.163600 
5.805020 0.000000 10.000000 
7.481900 10.000000 0.000000 
10.000000 7.444670 10.000000 
10.000000 0.000000 5.088420 
10.000000 2.467490 10.000000 
10.000000 0.000000 7.550620 
10.000000 4.934880 10.000000 
7.471600 10.000000 10.000000 
10.000000 10.000000 5.073900 
10.000000 10.000000 2.606220 
4.975850 10.000000 0.000000 
10.000000 4.933480 0.000000 
7.480930 0.000000 0.000000 
4.985820 0.000000 0.000000 
10.000000 0.000000 2.571120 
10.000000 2.457810 0.000000 
2.484790 10.000000 0.000000 
10.000000 7.418680 0.000000 
4.546790 2.074180 5.758790 
4.970210 10.000000 2.557110 
0.000000 4.908430 2.546090 
5.552800 2.171550 10.000000 
1.531270 3.368050 8.498670 
7.470820 4.879910 10.000000 
7.693000 0.000000 7.592000 
2.240650 5.507240 10.000000 
2.230400 0.000000 4.507870 
2.481570 10.000000 2.547050 
2.481900 7.451270 0.000000 
10.000000 2.454600 7.558240 
2.480140 10.000000 5.054270 
10.000000 2.443210 5.095370 
2.491140 2.470060 0.000000 
4.975040 2.453120 0.000000 
2.465490 7.676620 10.000000 
4.972540 10.000000 7.545770 
4.964750 4.926080 0.000000 
0.000000 7.673930 7.553270 
10.000000 4.913310 5.096440 
1.532260 1.453720 6.606800 
0.000000 7.434140 2.563750 
7.459570 0.000000 2.593190 
7.477380 7.441060 0.000000 
0.000000 2.198300 4.480200 
2.461550 0.000000 2.331530 
7.692680 2.422530 10.000000 
0.000000 5.516450 7.798180 
10.000000 2.450860 2.572690 
10.000000 7.438970 7.551600 
4.940860 7.446460 10.000000 
10.000000 7.438090 2.572370 
2.479730 4.942600 0.000000 
1.466300 2.587980 7.371570 
3.406650 1.427500 8.536520 
10.000000 7.436140 5.081430 
0.000000 7.455980 5.086890 
4.970690 7.444400 0.000000 
2.709020 2.573410 8.633990 
7.472000 4.928860 0.000000 
7.470110 10.000000 5.075340 
7.480750 0.000000 5.144450 
7.475860 2.453940 0.000000 
4.940690 0.000000 2.563840 
4.963760 10.000000 5.073590 
0.000000 2.444500 2.327760 
10.000000 4.925050 2.571490 
7.470860 10.000000 7.547200 
7.455050 7.419880 10.000000 
10.000000 4.922430 7.562770 
7.476760 10.000000 2.570660 
5.544220 0.000000 7.821930 
2.491510 10.000000 7.527150 
2.697570 1.330320 7.393870 
7.434350 4.852300 7.610970 
4.921340 7.402470 7.593170 
2.443780 4.879800 2.591130 
7.439370 2.394670 5.164320 
2.449840 2.421650 2.433950 
2.445950 7.412110 5.116060 
4.917960 4.864320 2.632970 
7.409770 4.851470 5.154930 
7.466700 7.432070 2.574220 
2.469280 7.423460 2.575950 
7.449340 4.903560 2.595500 
7.592140 2.402500 7.608020 
2.454000 7.572710 7.572880 
2.201300 2.133470 4.727710 
4.923090 2.404320 2.604680 
7.448710 7.411720 7.566020 
5.328510 2.123200 7.878570 
7.447920 7.410280 5.099410 
7.451450 2.434030 2.599340 
4.953150 7.417800 2.583400 
4.916680 7.367350 5.135390 
2.205720 5.266250 7.841520 
CELLS 68 612
8  39 80 127 67 0 16 84 22 
8  23 66 135 63 1 38 87 36 
8  17 111 130 94 2 41 62 27 
8  50 91 122 110 3 58 83 42 
8  57 69 123 68 4 15 81 33 
8  37 112 126 75 5 35 78 21 
8  29 107 129 89 6 48 108 43 
8  56 88 132 102 7 55 82 53 
8  31 85 118 73 8 30 105 32 
8  46 70 125 65 9 45 86 26 
8  67 85 118 127 10 103 128 59 
8  117 132 82 101 59 128 103 10 
8  111 17 94 130 10 20 113 59 
8  127 80 39 67 59 113 20 10 
8  125 117 101 65 130 59 10 111 
8  120 116 118 128 11 19 127 59 
8  113 80 93 13 59 127 19 11 
8  132 117 121 124 128 59 11 120 
8  134 119 123 133 11 19 116 120 
8  122 124 121 131 133 120 11 134 
8  125 130 25 114 117 59 11 121 
8  134 131 129 115 11 121 114 25 
8  25 130 94 98 11 59 113 13 
8  63 93 19 135 98 13 11 25 
8  134 115 126 119 11 25 135 19 
8  24 27 94 98 12 62 130 25 
8  114 125 86 64 25 130 62 12 
8  63 135 66 23 98 25 12 24 
8  90 115 129 108 12 25 114 64 
8  126 115 90 75 135 25 12 66 
8  40 36 63 93 14 87 135 19 
8  119 126 78 96 19 135 87 14 
8  80 127 84 16 93 19 14 40 
8  118 116 61 105 127 19 14 84 
8  123 119 96 81 116 19 14 61 
8  81 123 116 61 15 69 92 18 
8  61 116 118 105 18 92 73 32 
8  75 126 135 66 21 78 87 38 
8  67 127 118 85 22 84 105 30 
8  65 125 130 111 26 86 62 41 
8  90 115 126 75 28 76 112 37 
8  76 115 129 107 28 90 108 48 
8  107 129 131 100 29 89 95 49 
8  85 118 128 103 31 73 74 54 
8  68 123 119 71 33 81 96 34 
8  71 119 126 112 34 96 78 35 
8  83 97 133 122 42 51 60 110 
8  89 129 114 109 43 108 64 47 
8  101 117 125 65 44 72 70 46 
8  72 117 132 88 44 101 82 55 
8  86 125 114 64 45 70 109 47 
8  100 131 122 110 49 95 91 50 
8  60 133 123 68 51 97 69 57 
8  106 124 122 91 52 99 83 58 
8  99 124 132 102 52 106 88 56 
8  102 132 128 74 53 82 103 54 
8  134 119 71 104 133 123 68 60 
8  133 134 131 122 60 104 100 110 
8  116 120 77 92 123 133 97 69 
8  114 121 79 109 125 117 72 70 
8  119 126 115 134 71 112 76 104 
8  121 124 106 79 117 132 88 72 
8  120 116 92 77 128 118 73 74 
8  124 120 77 99 132 128 74 102 
8  134 131 100 104 115 129 107 76 
8  83 122 133 97 99 124 120 77 
8  129 131 95 89 114 121 79 109 
8  131 122 91 95 121 124 106 79 
CELL_TYPES 68
10
10
10
10
10
10
10
10
10
10
10
10
10
10
10
10
10
10
10
10
10
10
10
10
10
10
10
10
10
10
10
10
10
10
10
10
10
10
10
10
10
10
10
10
10
10
10
10
10
10
10
10
10
10
10
10
10
10
10
10
10
10
10
10
10
10
10
10
CELL_DATA 68
SCALARS u float 1
LOOKUP_TABLE default
58.091562
116.950932
116.820276
149.911234
89.862607
150.758521
209.729000
90.044251
29.055543
150.801974
67.992650
90.254520
98.305830
77.511970
111.864410
87.399980
92.532210
108.725720
108.536790
128.735060
128.567160
147.976560
109.620530
109.494770
128.405290
127.325670
149.165970
127.406490
167.999150
149.252500
97.785370
111.230100
76.862910
67.446110
89.611000
69.605600
49.272120
132.918660
45.782870
133.037200
170.061900
189.593880
190.073520
49.413090
110.122730
130.445930
129.793360
189.405050
130.701680
110.382810
169.866630
170.231620
109.787880
129.599850
109.675260
69.798910
129.944280
149.961910
89.414420
149.961180
150.018840
129.916170
69.270010
89.430210
169.839630
109.416210
169.700940
149.829490
