# vtk DataFile Version 2.0
Unstructured Grid Example
ASCII
DATASET UNSTRUCTURED_GRID
POINTS 12136 float
-0.104042 0.111306 -0.272745 
0.199286 0.184288 -0.153628 
0.474734 -0.102949 -0.118282 
-0.270363 -0.125626 -0.091881 
-0.120589 0.090181 0.476585 
0.108731 0.478281 0.096674 
-0.472978 -0.143025 -0.075871 
0.091425 -0.274159 0.117583 
-0.264396 -0.262634 0.333112 
-0.115157 0.099754 0.272528 
-0.098580 0.113980 -0.476552 
0.078522 -0.478003 0.123726 
0.314391 0.297424 -0.249993 
-0.167860 -0.158403 0.210198 
0.270630 -0.107647 -0.112898 
0.108024 0.274114 0.103932 
-0.402371 -0.289948 -0.063723 
-0.386289 0.073760 -0.308652 
-0.295165 0.063269 0.398642 
-0.081009 0.218877 0.207378 
0.108615 -0.170927 0.457147 
0.066491 -0.415868 0.269678 
0.051969 -0.301496 -0.062757 
-0.059051 -0.300375 -0.062803 
-0.036697 -0.303858 -0.062659 
-0.029991 -0.482317 -0.128852 
-0.102234 -0.288099 -0.063764 
-0.334798 0.063642 -0.365854 
-0.127272 -0.065079 -0.277686 
-0.145276 -0.066535 -0.268448 
-0.141080 -0.270658 -0.066136 
-0.122435 -0.280240 -0.064622 
-0.127676 0.480979 -0.047489 
-0.066352 -0.126302 -0.479385 
-0.241454 -0.163252 -0.112346 
-0.236547 -0.175262 -0.104075 
-0.213522 0.083085 -0.444487 
0.092832 0.234564 0.431787 
-0.390311 -0.134759 -0.082498 
-0.111273 0.460928 -0.158613 
-0.461744 -0.138044 -0.133628 
-0.482538 0.129118 0.019914 
-0.074929 0.389916 0.303768 
0.196332 0.224826 0.091659 
0.184331 0.232598 0.098053 
-0.065304 0.277472 0.410712 
0.469565 0.125577 0.117906 
-0.462916 0.112731 0.151997 
-0.458766 -0.165306 -0.110746 
-0.391920 0.075591 0.301025 
0.429168 -0.240143 0.091370 
0.207647 -0.218668 -0.081141 
0.115595 -0.137653 0.466558 
0.063140 -0.374603 0.325099 
0.477995 -0.076743 0.125015 
0.062750 -0.040087 0.303331 
0.062888 -0.061666 0.299973 
-0.083087 0.213501 0.444547 
0.088762 -0.221356 0.201786 
0.095268 -0.229262 0.189576 
0.224306 -0.439801 0.079122 
0.068681 0.332756 0.366798 
0.141463 -0.465613 -0.114787 
0.084424 -0.266426 0.414841 
-0.068217 0.260010 -0.158775 
-0.063038 0.296352 -0.075239 
0.149920 0.244566 0.123341 
0.138471 0.246270 0.133454 
-0.123990 0.476828 -0.084890 
-0.161807 -0.068753 -0.257984 
-0.168709 -0.457852 -0.109031 
0.388506 -0.308608 -0.062701 
0.444238 -0.206816 0.100009 
0.233195 -0.193695 0.075649 
0.244960 -0.180005 0.072044 
0.276890 -0.081710 -0.408182 
0.243811 -0.155467 -0.118389 
0.245515 -0.144039 -0.128482 
0.088281 -0.063349 -0.292928 
0.066407 -0.062959 -0.298720 
-0.031734 -0.128815 -0.482152 
0.410648 -0.065327 -0.277652 
-0.266925 -0.414367 -0.084217 
-0.306018 0.062868 -0.390262 
-0.297431 -0.394520 -0.076455 
-0.379944 -0.319201 -0.062595 
-0.354634 -0.346463 -0.064949 
-0.326946 -0.371728 -0.069782 
-0.204042 -0.079594 -0.222554 
-0.215461 -0.084817 -0.209739 
-0.235166 -0.431639 -0.092616 
-0.202293 -0.446000 -0.101070 
-0.177512 -0.071421 -0.246963 
-0.191456 -0.075090 -0.234983 
-0.134778 -0.467251 -0.116059 
-0.134477 -0.116216 -0.467326 
-0.158611 -0.260180 -0.068214 
-0.081084 -0.294872 -0.063161 
-0.099908 -0.474480 -0.121943 
-0.064974 -0.479458 -0.126263 
-0.014347 -0.305582 -0.062599 
-0.213191 -0.212334 -0.083729 
-0.202103 -0.224801 -0.078639 
-0.167930 -0.109271 -0.458028 
-0.100522 -0.121994 -0.474426 
-0.045330 -0.062776 -0.302452 
-0.233890 -0.092992 -0.431964 
-0.243401 -0.116551 -0.157558 
-0.245167 -0.126954 -0.145772 
-0.266859 -0.084280 -0.414442 
-0.230576 -0.187422 -0.096356 
-0.222523 -0.199875 -0.089716 
-0.361684 0.067393 -0.338728 
-0.422401 -0.258416 -0.068813 
-0.200903 -0.101456 -0.446380 
0.021445 -0.062670 -0.305160 
-0.108125 -0.064062 -0.285787 
-0.066963 -0.062972 -0.298541 
-0.088131 -0.063346 -0.292953 
-0.407585 0.081406 -0.277734 
-0.439844 -0.079209 -0.223995 
-0.185872 0.097127 0.231604 
-0.198161 0.090580 0.223644 
-0.246355 -0.137751 -0.134043 
-0.244445 -0.150664 -0.122627 
-0.189195 -0.236985 -0.074436 
-0.175231 -0.249004 -0.070747 
-0.444333 -0.139928 -0.078125 
-0.458978 -0.112642 -0.163096 
-0.224575 -0.091474 -0.196635 
-0.233114 -0.098489 -0.183459 
-0.383605 -0.062655 -0.314622 
-0.451438 -0.093305 -0.193393 
-0.101504 0.112051 -0.394815 
-0.298912 -0.076129 -0.393527 
-0.441519 0.098327 -0.213201 
-0.238497 -0.107419 -0.170432 
-0.362269 -0.132523 -0.084816 
-0.417380 -0.137201 -0.080283 
-0.246054 0.071621 0.178622 
-0.234556 0.075144 0.191998 
0.159214 -0.243199 0.115172 
0.171254 -0.238268 0.106891 
0.183295 -0.233336 0.098609 
-0.480993 0.127706 -0.047186 
-0.075132 0.234580 -0.191928 
-0.071045 0.247915 -0.176416 
-0.424412 -0.069589 -0.254939 
-0.405610 -0.064157 -0.285360 
-0.357771 -0.064648 -0.343149 
-0.329305 -0.069374 -0.369665 
-0.276119 0.065500 -0.411542 
-0.103517 0.111571 -0.306294 
-0.245610 0.071937 -0.429470 
-0.111253 0.164731 -0.240849 
-0.101660 0.178682 -0.235130 
-0.080211 0.220833 -0.205587 
-0.082932 0.213915 -0.444315 
-0.093468 0.192729 -0.227120 
-0.085962 0.206822 -0.217989 
-0.062504 0.315817 -0.382744 
-0.069610 0.370975 -0.327757 
-0.126794 0.145867 -0.461031 
-0.076530 0.394838 -0.297004 
-0.094005 0.433941 -0.229743 
-0.064697 0.344437 -0.356562 
-0.064421 0.283777 -0.406530 
-0.070733 0.250367 -0.426865 
0.166457 -0.458461 0.110211 
-0.102942 0.448818 -0.194587 
-0.085031 0.416285 -0.263725 
-0.154156 0.119458 -0.243937 
-0.143088 0.129241 -0.245578 
-0.229862 0.076585 -0.197401 
-0.241954 0.072876 -0.183346 
-0.454146 0.106439 -0.180223 
-0.118480 0.470287 -0.121988 
-0.064462 0.281243 -0.120013 
-0.063578 0.289611 -0.098106 
-0.062737 0.301488 -0.051477 
-0.305626 0.062586 -0.011979 
-0.283039 0.064280 -0.115282 
-0.290473 0.063493 -0.095831 
-0.256842 0.068933 0.163560 
0.128027 0.245348 0.144621 
0.117884 0.243638 0.156105 
-0.066027 0.271159 -0.139988 
-0.426039 0.089821 -0.245696 
-0.132151 0.139789 -0.246074 
-0.121480 0.151876 -0.244267 
-0.166011 0.110382 -0.240311 
-0.178440 0.101825 -0.235230 
-0.191167 0.094306 -0.228124 
-0.204075 0.087425 -0.219771 
-0.216986 0.081786 -0.209002 
-0.253605 0.069660 -0.168352 
-0.264583 0.067198 -0.151917 
-0.301012 0.062764 -0.054476 
-0.304295 0.062628 -0.033391 
-0.296320 0.063048 -0.075335 
-0.470776 0.118901 0.119415 
-0.274257 0.065545 -0.133942 
-0.464120 0.113669 -0.147111 
-0.471830 0.119780 -0.113789 
-0.477388 0.124496 -0.080610 
-0.480533 0.127286 0.053108 
-0.297166 0.062992 0.072176 
-0.083056 0.411647 0.271372 
-0.276221 0.065235 0.130163 
-0.267227 0.066653 0.147684 
-0.482702 0.129270 -0.013556 
-0.476630 0.123829 0.086390 
0.460538 -0.155340 -0.118242 
-0.301491 0.062744 0.051469 
-0.122084 0.474604 0.099192 
-0.452984 0.105638 0.183739 
-0.440892 0.097970 0.214619 
-0.100809 0.445507 0.203283 
-0.321911 0.062875 0.377364 
-0.291807 0.063353 0.092377 
-0.284418 0.064133 0.111732 
-0.210433 0.084457 0.214890 
-0.222658 0.079472 0.204004 
-0.148152 0.124778 0.460900 
-0.250942 -0.247820 0.316077 
-0.064027 0.285367 0.109265 
-0.305765 0.062582 0.009270 
-0.304692 0.062613 0.030266 
-0.063275 0.292834 0.088596 
-0.062882 0.298686 0.066467 
-0.062590 0.305195 0.020553 
-0.116172 0.467349 0.134223 
-0.266147 0.066896 0.418124 
0.304185 0.034638 0.062696 
0.300850 0.056070 0.062835 
-0.086524 0.205764 0.218728 
-0.093562 0.192553 0.227284 
-0.091971 0.430364 0.237592 
0.063924 0.362820 0.338271 
-0.128937 0.482360 0.027150 
-0.075977 0.231826 0.195180 
-0.072196 0.244158 0.180838 
-0.069143 0.255881 0.165011 
-0.066671 0.267072 0.147994 
-0.065137 0.276797 0.129060 
-0.062600 0.304859 -0.027064 
-0.062564 0.306095 -0.002974 
-0.062686 0.302704 0.043709 
-0.126465 0.479644 0.063689 
-0.109039 0.457802 0.168633 
-0.129343 0.482799 -0.010190 
-0.062783 0.308100 0.388722 
-0.063806 0.337688 0.363345 
-0.119351 0.154280 0.243966 
-0.129673 0.142596 0.245705 
-0.101125 0.179459 0.234863 
-0.109940 0.166646 0.240107 
-0.068205 0.365109 0.334741 
-0.162745 0.112624 0.241705 
-0.174221 0.104730 0.237007 
-0.071930 0.245615 0.429524 
-0.100481 0.180530 0.455380 
-0.119146 0.092137 0.448333 
-0.182077 -0.173459 0.228385 
-0.140337 0.131671 0.246037 
-0.151487 0.121823 0.244376 
-0.117209 0.095380 0.393704 
-0.410642 0.082655 0.272951 
-0.204004 0.087675 0.447982 
-0.235923 0.074658 0.434601 
-0.347122 0.065113 0.353852 
-0.370609 0.069532 0.328235 
-0.426938 0.090261 0.244086 
-0.210081 -0.203338 0.264154 
0.102417 -0.235592 0.177767 
0.110248 -0.240248 0.166387 
0.118566 -0.243831 0.155327 
0.127803 -0.245386 0.144871 
0.070435 -0.324177 0.374119 
0.092659 -0.235295 0.431483 
0.068174 -0.157959 0.260655 
0.070584 -0.174059 0.249906 
-0.237492 -0.233072 0.299024 
0.063862 -0.103060 0.287802 
0.125826 -0.069935 0.478879 
0.121442 -0.103827 0.473791 
0.062674 -0.018365 0.305370 
0.064712 -0.122749 0.280104 
0.066184 -0.140927 0.270769 
0.129639 -0.001581 0.483086 
0.128601 -0.035824 0.481959 
0.481375 -0.043500 0.128034 
0.063256 -0.082699 0.294457 
0.284046 -0.112943 0.064243 
0.291539 -0.093319 0.063451 
0.301526 -0.051807 0.062807 
0.062794 0.046899 0.302260 
0.074097 -0.187734 0.238300 
0.100838 -0.203526 0.445479 
0.078022 -0.200678 0.226475 
0.083073 -0.211700 0.214093 
0.208468 -0.216731 0.085353 
0.220943 -0.205619 0.080268 
0.065687 -0.350506 0.350463 
0.076899 -0.295884 0.395764 
0.085171 -0.394544 0.121037 
0.063241 -0.396427 0.298133 
0.137269 -0.246519 0.134517 
0.148233 -0.244884 0.124834 
0.119193 0.460326 0.154640 
0.007899 -0.305914 -0.062590 
0.029961 -0.304788 -0.062622 
0.073558 -0.432888 0.239559 
0.080948 -0.449574 0.122718 
0.195045 -0.451027 0.092416 
0.366999 -0.332610 0.068707 
0.313534 -0.384621 0.062654 
0.364379 -0.336731 -0.063683 
0.090247 -0.305874 0.118757 
0.195887 -0.225184 0.091899 
0.465444 -0.142202 0.114695 
0.255918 -0.165086 0.069221 
0.266378 -0.149411 0.066878 
0.453962 -0.185855 -0.097328 
0.456017 -0.174594 0.107775 
0.275589 -0.131575 0.065409 
0.472697 -0.109713 0.120494 
0.297120 -0.072691 0.063062 
0.482888 -0.009898 0.129421 
0.341076 -0.360152 0.064245 
0.411258 -0.272123 0.082933 
0.284763 -0.405996 0.064363 
0.390500 -0.303090 0.075162 
[...]
CELL_DATA 9870
SCALARS u float 1
LOOKUP_TABLE default
-2.280753
-2.489201
-2.031397
-2.028376
-2.328099
1.956060
1.978327
1.820712
1.588137
1.947884
2.246612
2.009018
1.625845
-4.199718
-3.898764
-4.202001
-3.931924
-3.739307
3.901340
3.669889
3.228868
3.139314
3.572473
5.609857
5.300383
5.123267
5.318938
5.612407
-5.168874
-5.320525
-5.620603
-5.640340
-5.364182
-0.824415
-0.264701
-1.186402
-0.874590
-0.288186
-1.605678
-1.352945
-1.640031
2.018309
2.251932
2.035196
2.466178
2.323628
-3.113628
-3.594917
-3.235047
-3.938931
-3.728957
-2.184910
-1.703688
-1.640679
-2.434645
-2.085675
2.896127
2.661243
2.927367
-1.059250
-0.882312
-1.039930
0.660104
0.218148
0.997994
0.747209
0.243001
3.710549
3.888140
3.904611
4.200905
4.196060
-5.852091
-5.810639
-4.880053
-4.976278
1.453066
1.042374
3.080930
3.122219
2.735472
3.118991
-0.876045
-0.542621
-2.381432
-2.596348
-3.345650
-3.500064
-3.176720
-4.648033
-4.896802
-3.636560
-3.754855
-5.025892
-5.024368
-3.873141
-3.776132
-3.956863
-3.856723
-3.943102
2.802244
2.503860
-5.131768
-4.915189
-4.216966
-4.212698
-4.656260
-4.407897
5.743873
5.832491
-4.851414
-4.685966
-4.456110
-4.625995
-5.201408
-5.216530
-4.980284
-4.992711
-4.886960
-4.656255
1.886095
1.560666
-5.655658
-2.768533
-3.024557
4.855566
4.962010
4.194497
4.180210
4.203691
4.847093
4.969529
5.439231
5.272363
-1.660121
-1.946829
-0.084866
-0.427270
2.291164
1.863714
-0.453820
-0.641161
3.481429
-0.174031
0.221254
4.059967
3.751556
2.513841
2.718287
2.299038
4.401999
4.659412
0.210466
0.372170
0.065222
-0.996988
-1.257815
5.918387
5.919935
-3.069493
-3.433678
1.487077
1.915817
0.537934
0.262925
1.570265
1.323916
4.208156
2.199961
-4.026508
-5.478001
-5.615559
0.384444
-0.014292
2.695315
0.868560
0.670586
1.076387
-1.763081
-1.318020
0.189024
0.108518
-2.239383
-2.005984
-2.466223
-4.668397
0.415593
0.792742
-5.804078
-5.857487
-4.964552
-5.887276
-5.880583
-5.893633
-4.161556
-4.127170
-4.186870
-5.723769
-4.082724
-5.311460
-5.486574
-5.321954
-4.015077
-5.118601
-2.994812
-4.152955
-4.179487
-4.118386
-5.627182
-3.397084
-3.240491
-5.827893
-5.741931
-4.218106
-4.217918
-4.214692
-5.886776
-4.198731
-5.761879
-2.881757
-2.681879
-3.663295
-3.536612
-4.746615
-5.736025
-5.781659
1.046817
1.295205
0.792515
-4.073675
-5.412621
-5.430315
-5.079074
-5.119140
-4.920591
-5.693989
-4.203820
-4.214209
-5.868746
-5.901951
-3.473204
-3.177408
-2.967670
-3.235686
-2.904391
-3.315632
-3.088272
-2.717609
-2.774445
-2.597798
-5.917160
-4.394391
-4.583835
-4.748435
-4.758172
-4.395989
-4.422323
-4.224697
0.040693
-0.205477
0.287042
-0.084551
-0.169619
0.025447
0.159826
-3.274955
-3.518008
-0.019847
-0.305538
-5.827514
-5.920915
-4.842022
-2.541320
-2.229104
-2.742584
-2.297367
-2.589491
-1.459274
-1.744304
-1.169357
-0.592037
-2.148737
-2.675592
-0.880254
-0.719217
-1.170357
0.113603
-0.292693
0.502808
1.222778
0.871818
-1.645951
-1.601921
-1.458933
-2.473871
-2.641630
-3.136635
-3.112530
-3.135272
-4.192586
1.066971
0.804248
1.805813
-2.187748
-2.358957
-2.896360
-2.986801
-2.787308
-0.452730
4.218502
4.221888
-2.785713
-2.908722
-3.003917
-3.069322
-3.107480
-3.057699
-2.517830
-2.660653
-2.227133
-3.980130
-3.753420
-2.502939
-1.380578
-1.595227
4.708140
-0.693764
-0.926937
1.502636
-1.804237
3.628286
3.881960
-1.365716
-1.064198
4.333108
4.530837
0.649943
-1.157367
0.538632
-1.511716
-1.284941
-1.542866
2.859110
2.961624
-2.003316
2.731703
2.582982
2.231838
2.416913
4.115664
1.884203
3.325318
3.161914
3.475222
3.012583
2.916482
5.898840
3.091727
3.364597
3.137371
3.129417
3.098737
3.042809
2.027634
5.027867
5.023363
2.466317
2.645170
2.793090
1.541765
1.784471
4.074148
2.967624
3.368434
3.673683
3.475527
3.067445
-0.968864
-1.131813
-1.152683
3.160774
2.793798
3.440274
2.615833
2.953432
3.204665
2.894079
3.268936
3.047390
2.706381
-0.752662
2.785178
2.331686
0.273756
-1.345571
-1.129104
-1.320647
-1.248255
-1.225646
-1.049159
-0.057552
-0.165206
0.636103
1.060780
2.334590
1.167527
1.392173
0.951028
-1.416323
-1.208466
-1.445148
1.848161
2.077084
3.821428
4.134981
2.909344
1.618890
4.423135
4.685803
4.345411
1.955136
1.728810
2.174087
2.592671
2.386811
3.254691
3.406297
0.745958
0.549737
0.485646
0.316382
-1.754120
-2.003857
-1.789397
-1.531865
-1.678223
-1.245875
-1.468299
-1.030508
-1.294555
-1.071723
-0.232447
5.674310
-2.800890
-1.170626
-2.219786
-1.974093
-1.505781
-1.450365
-1.886935
0.966332
0.515614
0.082542
-0.317658
-0.442517
-0.579832
-1.084125
-0.549447
-1.030934
-1.372360
3.421524
3.070385
1.289729
1.505434
1.308167
4.610333
1.420287
-0.680069
2.792510
2.984775
3.544820
3.670602
3.088531
3.781022
4.922199
5.487546
5.628018
5.133138
5.321290
5.889923
4.167239
4.191744
4.133996
4.209107
3.877941
3.962679
4.094526
4.045617
4.131705
5.765104
5.814569
5.846114
5.876888
5.861566
5.897359
5.881258
5.843447
5.806303
5.895385
5.581542
3.985025
3.912711
5.719298
5.762465
5.670613
5.718027
4.088653
4.032048
5.412074
5.408677
5.084676
5.064540
4.884648
4.429814
4.613889
4.634778
4.386147
4.200214
4.404154
4.983995
4.979711
4.752855
4.749979
5.203561
5.199672
4.860077
4.838949
4.656878
4.159542
4.209190
3.826759
4.218908
3.724630
3.607515
5.079356
4.857179
5.781485
5.695951
1.122526
-0.425421
0.005632
1.435249
1.402963
1.815018
2.047367
1.762497
2.141967
1.970248
2.118539
-1.420956
-0.870724
-3.765479
-3.406539
-4.095279
1.390820
0.744722
1.053972
1.564389
1.204871
1.841848
0.991208
1.357507
1.632892
1.608602
1.231641
1.395667
1.013570
0.782287
0.761825
1.142106
1.422244
1.178000
0.009061
0.116976
-0.110367
-1.532589
-1.295459
-1.770210
-0.001418
-0.131141
-0.260427
-0.438334
-0.632593
-0.283289
-3.067862
-4.394557
-1.940516
-2.162467
-1.710564
-1.483860
-3.770996
-4.083911
-3.023721
-2.619023
-1.066812
-2.199110
-0.843451
-0.897713
-0.843355
-1.049330
-4.375313
-2.676956
-1.823202
-2.264239
-1.264440
-1.362355
2.744206
2.775083
2.620098
2.590781
2.530881
2.396699
-5.706717
-4.099451
2.811076
2.502916
2.964935
2.429944
2.744774
2.281420
2.555910
2.234894
2.718201
2.533045
-1.577254
-1.308097
-1.252854
-0.835993
-0.799855
2.302272
2.114948
2.277086
-4.155893
-3.985328
-4.499782
-4.505986
-4.183012
-2.416918
-2.755234
-2.516846
-2.992218
-2.847354
-2.946079
-3.077999
-3.385843
-3.708439
-3.529813
4.148184
4.501710
4.504744
4.164273
3.963511
2.434878
2.462014
2.257648
0.533774
0.510568
0.957755
1.212386
0.913987
-5.544774
-5.579149
-5.589472
-5.563219
-4.055578
-3.720996
-3.651397
-3.993959
-3.850736
-3.510267
-3.628834
-3.962608
-1.979874
-3.933969
-3.876860
-2.945290
-2.743611
-2.436386
-2.615573
-4.985374
-4.773762
-4.514677
-4.761826
-5.603551
-3.506547
-3.672603
4.992587
4.779116
4.991285
5.177191
5.183457
5.123378
5.277323
5.337477
1.495213
1.732493
2.103423
1.862061
-4.985551
-4.692488
-4.738342
-5.027682
-4.803617
-4.523428
-4.507289
-4.793787
-1.635726
-1.516164
-1.742790
-1.873967
4.543319
4.236413
4.442373
4.723140
2.233630
1.810361
-2.394751
-2.139318
4.471085
4.788127
4.969899
4.647679
-5.331995
-5.178888
-5.115267
-5.267399
-1.367503
-1.449716
-1.866230
-1.749971
4.977826
4.877479
5.109446
0.338627
0.172963
4.884564
4.959466
5.211395
5.144898
-4.770179
-4.448117
-4.633785
-4.959994
-3.299974
-3.078395
-2.826783
-3.031567
1.048394
1.279150
1.702430
1.463242
-2.382148
-2.635477
-2.554749
-2.296968
-2.123801
-2.034097
-2.880185
-2.523425
-2.758403
-3.115564
-5.383963
-5.472637
3.757785
4.082584
4.140516
3.816830
-2.234234
-1.833210
-1.706053
-2.121531
0.911877
0.505967
0.034530
-0.218535
-0.389399
-0.138433
-3.468537
-3.589181
-3.328421
-0.795270
-0.474905
-0.117227
-0.419419
3.504427
3.686986
3.701085
3.526167
0.563287
0.615193
0.390169
0.300953
-0.296720
-0.136299
-0.429748
5.013235
4.803691
5.066719
5.253391
3.614625
3.588846
3.764280
3.793715
-0.697322
-1.130547
-4.824566
-5.025506
4.500967
4.789784
4.775235
4.481104
2.370012
2.667585
2.980032
2.672443
1.963272
2.140257
2.393785
2.209230
-1.581279
-1.838750
-1.970674
-1.714444
-0.105237
0.046479
0.246583
0.132961
-5.657139
-5.611830
4.849499
5.162864
5.239861
4.932366
1.204738
0.869397
1.072076
1.429283
-1.074649
-0.813501
4.088907
3.853605
3.974302
4.227667
0.424654
0.689947
1.064347
0.786223
0.263090
0.087892
0.254739
0.466912
-5.466780
-5.231262
-5.209003
-5.443688
-1.045582
-1.391418
2.357321
2.147507
2.310957
2.524393
5.526821
5.596333
-3.294077
-2.919014
-2.802466
-3.185144
-4.771061
-5.053478
0.366963
0.635407
1.026798
0.770443
-4.993094
-4.814075
4.339828
4.402518
-1.034065
-0.991559
-1.277315
-1.330494
3.553321
3.375706
3.553115
3.749170
2.107615
1.697220
-5.157138
-4.930960
-5.052919
-5.258626
3.944711
3.785652
4.128479
4.281804
0.179647
-0.014065
-0.552937
-0.308367
-2.418022
-2.036369
-2.198678
-2.567641
-4.463907
-4.170380
-3.982043
-4.267494
1.189057
1.619224
1.824321
1.386948
2.653857
2.864763
3.219253
3.016555
-5.149727
-5.186268
-2.041671
-2.349617
-0.592505
-0.529540
-0.787151
-0.865311
-4.481216
-4.445584
-3.721663
-3.525780
-3.774201
-3.900561
1.305970
1.086858
-4.797132
-4.491477
-4.340572
-4.641227
-5.128244
-4.968059
0.220897
0.015499
0.269590
0.471737
3.993207
3.735768
3.910084
4.178733
3.792369
3.544600
-1.820968
-2.031683
-2.254045
-2.037250
-1.753270
-1.402293
-1.658759
-2.019189
1.037172
1.393903
1.651323
1.274952
-5.124208
-4.944787
1.073970
0.800997
0.623125
0.873532
4.617537
4.523186
4.818932
4.902886
2.350167
2.954310
2.623477
-1.722172
-1.517227
-1.765536
5.049948
5.136082
4.570647
4.687393
5.001697
4.744892
4.744448
-2.763789
-2.976670
-3.140777
-2.935978
-3.353514
-3.579785
-3.522723
-3.284825
-1.848920
-2.110241
-2.338178
-2.095873
-0.413110
-0.242241
-0.671859
-0.855025
-5.555303
-5.363267
-5.446734
-5.620298
0.968129
0.763927
1.000970
1.209655
-4.403626
-4.080426
-4.291726
-4.608246
4.931213
2.128663
2.342873
0.141831
-0.293536
0.220283
0.450488
0.864613
0.635141
-3.370421
-3.005171
-4.855004
-4.566750
-4.323251
-4.626562
-0.783799
-0.400571
-0.637518
-1.029603
3.805196
3.941811
1.967039
2.106773
1.845544
1.717596
-4.007638
-3.744858
-4.067326
-3.098445
-3.277878
-3.300256
1.877743
2.037281
2.304973
-2.506949
-2.277997
-2.632365
-2.872932
-0.670321
-0.186586
0.000472
-0.478258
-5.522555
-5.350838
-5.426048
-5.584508
-0.079507
-0.068020
-0.387733
-0.411941
-0.657560
-0.421148
0.018727
-0.212940
-1.422273
-1.667555
-1.730463
-1.491013
-1.184079
-1.259321
-0.954874
-1.076160
-1.322880
-1.535880
-1.280481
-0.854650
-1.099175
1.416894
1.702601
2.047560
1.747366
-1.186986
-1.385968
-1.137767
-0.937869
-2.804152
-2.994328
3.474893
3.741836
3.481254
3.226564
-3.861826
-4.030449
-4.024155
-3.864283
-3.846859
-4.026640
1.154431
1.533594
1.796315
1.396708
0.457150
0.485814
0.108839
0.092907
-3.170536
1.896965
2.178380
5.412054
5.236216
5.309162
5.473267
-3.164167
-3.038873
-3.248289
-3.388059
-2.077008
-2.319609
3.703693
3.754077
3.980089
3.955047
0.238164
0.618468
1.525500
1.769944
2.131920
1.902946
2.359516
2.515465
2.123653
1.999851
1.733129
1.325241
0.253306
0.631777
0.875572
0.524369
3.992216
0.486979
-0.275897
0.193604
0.397072
-0.056595
-5.414546
-5.200291
-5.008510
-5.249499
1.229782
0.957687
-0.261107
-0.532944
-0.373233
-0.113376
0.011492
0.146707
-4.003663
-4.186359
-0.461753
-0.225760
0.198523
-0.037779
2.443692
2.633659
2.859636
2.661296
-4.504606
-4.258169
-4.360165
-4.624176
3.559388
3.866172
-4.831643
-4.965039
-5.164405
1.533289
1.317781
1.529640
1.755031
1.749340
1.973461
-0.748874
1.903253
1.797757
2.080706
2.214673
-1.220343
-0.864515
-1.100457
0.937544
1.189765
1.277116
3.308831
3.656279
3.407226
3.176270
3.512825
-1.304228
-1.584500
-1.488505
-1.203433
1.427407
1.687059
2.007107
-1.557807
-1.478744
-1.739398
-1.827936
-4.444535
-4.133257
-4.071260
-4.383923
0.060760
-0.155342
0.078749
0.304557
-0.188231
-0.395492
0.952582
1.336153
3.487258
3.412406
3.588393
3.661757
-5.680315
3.230672
2.546466
2.736760
-3.726707
-3.432955
-3.480744
-3.794043
-3.637623
-3.361740
1.265462
-3.517414
-3.691051
-3.778297
-3.605814
0.004718
1.257170
1.023535
5.431008
5.324973
5.495135
5.585510
-4.993342
-4.862187
-5.243374
5.556729
5.417491
0.883750
0.668377
0.452803
0.660014
0.048287
-0.170797
0.077981
0.282311
0.284346
0.503170
3.759142
4.006341
0.218690
0.362038
5.185346
3.057197
3.197215
3.384437
3.259722
4.298390
4.218658
5.653915
5.609200
-3.901162
-3.776057
-4.114006
-4.231631
-5.062913
1.164672
-0.362936
-0.075798
-0.373260
-0.621746
3.425342
3.402894
-3.677908
-3.849892
-3.906003
-3.733209
1.926060
2.169853
2.144793
-3.396511
-3.161485
-3.271149
-3.527980
3.166816
3.440282
3.751464
3.477231
4.281640
4.391716
0.806294
0.845770
2.713699
2.610712
2.870583
2.988314
-0.990920
-1.290261
-1.108778
-0.818232
-0.680531
-0.517685
4.069180
4.214774
3.656100
-2.847352
-3.078095
-3.242383
-3.007272
-2.665860
-2.890925
-0.763099
-0.635450
-0.359859
-0.458289
3.523576
3.572671
3.785890
3.452489
1.023322
1.241570
3.431070
3.625271
5.272659
5.393882
-2.683057
-2.536029
-2.735354
-2.894441
-2.459748
-2.325371
2.366213
2.173701
2.554320
-4.941318
-4.655103
-4.779005
-5.055745
3.561346
3.440843
-5.344599
5.672343
5.697489
-1.585454
0.842129
0.890152
0.578883
0.558236
3.506760
3.554600
3.869000
3.817421
3.468747
-0.046118
-0.364307
-0.211190
0.101134
-0.191177
-0.511296
2.808987
2.967522
3.213575
3.045743
1.137673
1.187747
-2.219636
-2.327997
-2.082139
-2.090523
-4.440866
-4.476913
4.114722
3.833371
4.064996
4.362911
0.583848
0.268833
0.414794
0.728827
1.187664
1.290066
0.994126
0.906570
1.457964
1.573883
2.500612
2.838035
2.346928
2.715177
-4.164016
-4.055969
2.999945
2.782836
-5.328242
-5.327142
-5.061973
-4.801466
-4.800762
-5.050809
-5.200955
-5.351581
-3.698082
-3.359767
-3.632369
-3.960181
3.760975
3.470653
2.135768
1.832257
1.903369
1.726547
1.952460
-3.029189
-3.129964
3.182338
3.343757
-0.456409
-0.770424
-0.945527
-0.588307
-0.689261
-0.889345
4.990878
5.169928
4.348885
-5.128477
-5.270042
2.897303
3.119167
0.202596
0.363687
-0.077925
0.963918
1.202027
-1.822646
-4.330523
-4.393159
-1.647816
-1.237206
-1.606097
-1.337946
-3.803415
-3.714483
3.247935
-4.173241
-3.898646
-4.165224
-4.448792
-3.550923
-5.621483
-5.621974
2.245688
2.577922
2.889970
2.542908
0.474581
0.935597
1.123663
0.663250
-4.522184
-4.531966
0.692774
0.495178
-0.392159
-0.603442
-0.871428
-0.641765
-0.677405
-0.965366
-0.827002
-0.541822
-5.682101
-4.011499
-3.998068
-1.120465
-1.391083
-1.023596
-5.538482
-1.011500
-1.504838
4.448823
4.456549
4.154596
-5.601543
0.518286
0.720461
-4.706828
-4.746686
-5.581738
-4.783933
-4.578798
2.642909
2.860413
3.038469
2.813900
3.693556
3.886814
4.197389
4.012768
3.397425
3.160210
3.501787
3.744724
-3.502717
-3.168651
-3.008570
-3.323211
-3.641180
-3.298455
-4.315915
-4.555732
0.652189
0.694195
0.934178
-5.467267
-5.227502
2.804199
2.622635
2.802891
3.001304
3.286919
3.218915
-3.211102
-3.465587
0.544000
0.303001
0.506309
0.767207
-5.483877
-5.388131
1.512379
1.340308
1.585926
1.751064
-4.798726
-4.941577
-0.241473
0.031271
-0.055616
0.258890
0.154397
0.425059
0.564365
-3.946100
-3.674184
-3.867136
-4.147953
3.837731
3.497339
-2.555031
-2.787670
-1.387072
-1.280274
-4.564038
-4.388618
-5.644798
-5.498141
-5.482706
-5.631086
-2.052351
-1.916099
-1.546511
-3.419318
-3.601857
3.613438
3.887719
4.112383
3.821607
-0.883939
-1.059157
-1.315026
-1.127665
-0.632807
-0.799494
4.995399
5.295587
5.331265
5.038934
-3.769446
-0.525120
-0.733809
-0.486176
-0.281274
-3.223057
4.348606
4.642155
4.862951
4.580216
4.650583
4.390255
4.625574
4.889444
-4.000148
-4.084910
5.203485
5.367261
-3.816369
-3.613640
-3.762510
-3.979755
1.669307
1.493214
-3.804129
-3.496137
-1.199288
-1.458422
4.625385
-3.994042
-4.014405
-2.493886
-2.719266
-2.877306
-2.658267
-2.224251
-2.469080
-2.502810
-2.257375
1.663165
2.281975
2.050614
1.728076
-0.486184
-0.318404
-5.731067
2.968291
-4.116839
-3.792841
-4.005422
-4.321912
2.007048
2.211586
-3.995693
-4.007213
-3.975844
-5.527785
1.865299
1.636697
1.535961
-5.171224
-4.922153
-5.046849
-5.273442
3.125206
3.395294
3.707474
-4.374618
-4.318277
2.964944
0.050001
0.225367
-0.063273
-1.190023
-1.125432
-1.459033
-1.566747
-1.369068
-3.011818
1.560518
1.806514
1.490659
1.275275
-1.333944
-1.087794
-4.772621
-4.741293
-3.293277
-3.092788
-3.312013
4.688637
4.964455
-2.929284
-2.799170
-3.014533
-3.129820
-2.918888
2.813823
3.082744
1.541286
1.765719
-1.170149
-1.122290
-0.785817
-0.795417
-0.670935
-0.255737
-0.004615
-0.396312
4.578533
4.278677
4.520502
0.013340
-0.253528
-0.052865
0.200979
0.289408
0.460649
2.031563
1.311450
1.233201
1.449712
3.852531
4.148133
4.404886
4.109018
4.529003
4.524273
-5.075057
-3.609956
-5.510113
-0.121102
0.300055
0.469966
0.068044
4.311077
4.469246
-3.766073
-3.869348
-3.531780
-3.705544
-4.034729
-4.825271
-4.539295
-4.429044
-4.721390
-2.768509
-3.145749
-2.908216
-2.609317
2.801666
-4.674395
-4.620902
-0.093035
-0.386970
-0.254082
0.035527
-0.696156
-0.941604
-0.852443
-0.592801
-0.476188
-0.350234
1.421392
1.815300
-2.560133
-2.279369
-2.640380
-5.487341
-5.476397
1.463022
1.691543
2.223775
2.063351
2.293106
2.451781
-4.376076
-4.696056
-4.398724
-4.335446
-4.631105
3.312430
3.402843
3.571639
3.489160
3.124184
3.000692
-5.601028
-5.555371
5.015123
5.226380
1.968038
2.187938
1.123208
1.348584
-0.175110
-0.409095
3.604412
3.704678
-4.206620
-4.062963
2.328441
2.499101
2.241396
2.090698
-5.734386
-5.580589
-5.491912
-5.659387
-3.960182
2.124455
1.974869
1.696880
1.819041
2.296893
1.963525
4.412055
4.461828
4.740132
4.692911
0.658771
0.830235
-3.357912
0.288813
0.746270
5.624157
5.499671
5.647583
5.345251
-2.160849
-2.315634
-2.563697
-2.405263
5.446111
5.396944
1.760751
1.469315
1.597915
1.885160
-2.701271
-2.498518
-2.753629
-2.975777
-2.927518
-3.220259
-5.628276
-5.768948
-5.477144
-0.916832
-4.741662
-4.681690
2.388207
2.271254
2.499081
2.607925
1.489966
1.935936
2.105902
1.670692
-0.024181
0.006526
-0.261829
-0.313134
-3.976664
-4.006033
-5.339628
-5.325506
3.185796
3.262379
0.154829
0.391786
-1.826101
-1.453913
-1.953804
-3.168393
-2.823819
-2.513096
-2.854048
-5.485101
-5.262440
0.633654
0.727215
0.881975
-2.685293
3.088776
3.115045
-2.661415
-2.256873
-2.096049
-2.501609
4.473249
4.753482
-3.603989
-1.963187
-2.105009
5.037412
5.321744
5.298640
5.007268
0.734589
0.915567
0.482253
0.307043
5.326917
5.136835
0.328751
0.140851
0.395539
0.580864
2.559809
2.749971
4.892944
5.055787
5.323401
-0.030788
0.252960
-5.776470
-2.740728
-2.971261
-2.982749
-2.749142
-2.705722
-2.933980
5.535130
5.499873
-4.350873
-4.482524
0.434421
0.231510
0.011090
0.217139
4.600017
2.459821
2.681619
-2.736271
-2.586479
-4.157261
-3.871824
-5.606080
-0.208457
0.004598
4.770481
0.186142
0.811771
0.499332
0.323208
0.015980
4.550766
4.635038
-5.553533
-5.785659
-4.778288
-4.478598
-4.646234
-0.848104
-1.344380
-2.448800
-2.190187
2.849590
-5.236382
-5.157168
-0.191747
-0.412640
1.399449
1.006981
1.284268
1.711431
1.906922
1.464508
-2.921474
-2.731150
-2.889141
-3.094628
-2.261182
-2.509584
-2.491890
-2.240540
-1.989579
-2.226192
4.453825
4.750687
4.715569
4.415858
-2.401067
-2.730699
-3.320345
-3.344696
-2.994339
-3.188538
-3.049882
-2.845852
-1.709576
2.043910
1.903896
2.137431
2.166999
1.818094
1.672627
3.986434
4.284941
4.032001
0.160180
0.505217
0.217358
-0.103258
1.711776
1.488988
1.941320
2.185409
-0.878787
-0.702175
-1.120098
3.234812
3.009688
3.303148
3.548602
-5.059841
-4.749561
-4.849226
-5.154842
5.602915
5.624210
3.935977
3.926795
4.132845
-4.577555
5.055794
1.343134
-4.284294
3.029673
-0.501196
0.169512
-0.404260
-0.123256
-3.455366
-3.394998
-3.426966
-3.078315
0.524356
0.730129
-5.320806
-5.152378
-4.988095
-5.174315
2.156413
1.924061
2.168182
2.384552
-3.676863
-3.333923
-4.846699
-4.548634
-4.449938
-4.745085
0.885578
1.318507
0.042977
0.297077
0.405600
0.847507
1.018257
0.572808
-1.084105
-1.377355
-5.056345
-4.934378
-5.267619
-3.852784
-1.599754
-3.590308
-3.772892
-3.797338
-3.610812
2.333175
-2.016612
-2.263173
-2.079306
-1.833876
3.655311
3.559620
-4.933843
-4.654712
-4.691208
-4.968243
-3.623080
-3.439260
-3.780234
-3.965570
-4.357355
-4.128884
5.089154
5.162713
1.791451
1.680675
2.026778
2.174555
-0.623924
-0.464132
-0.696410
-0.649779
-0.935319
-1.838991
-1.678664
-0.878153
-1.073425