# vtk DataFile Version 2.0
Unstructured Grid Example
ASCII
DATASET UNSTRUCTURED_GRID
POINTS 4789 float
-0.001888 -0.001910 5.958920 
-0.001888 4.041100 10.001900 
3.994550 -0.001884 9.957020 
10.000000 9.955130 -0.000006 
-0.000940 9.956160 -0.001043 
-0.002389 9.959610 10.002400 
9.956410 10.001300 10.001100 
10.001500 -0.001370 0.043331 
-0.002382 -0.002379 0.040414 
9.959640 -0.002416 10.002400 
4.736980 0.000000 5.540020 
4.170710 3.861350 6.118810 
4.738970 4.614720 9.999990 
2.444270 2.130350 7.684710 
-0.000010 4.673030 5.345800 
0.000000 7.336200 0.000000 
-0.000621 -0.000628 5.539090 
10.000000 10.000000 8.748920 
0.000000 0.000000 3.666770 
0.000000 7.999020 0.000000 
3.849200 0.000000 0.000000 
-0.000000 1.763160 6.425390 
3.579280 0.000000 8.247010 
3.750770 0.000000 8.614760 
0.000000 4.701540 0.000000 
0.000000 2.038170 0.000000 
0.000000 1.360350 0.000000 
0.000063 0.679489 0.000076 
1.303980 0.000000 0.000000 
0.657741 0.000100 0.000121 
1.263560 10.000000 0.000000 
6.366540 0.000000 10.000000 
0.000000 2.147690 6.639310 
0.000000 2.500280 6.886200 
0.000000 10.000000 8.704560 
1.366130 0.000000 6.240710 
0.914207 0.000000 6.119620 
2.860450 0.000000 7.225120 
0.000000 7.684810 10.000000 
0.000000 0.000000 1.076480 
0.000000 0.000000 4.156410 
0.000000 0.000000 4.641150 
1.773080 3.569920 10.000000 
1.370370 3.757700 10.000000 
2.847730 2.787600 10.000000 
3.961220 0.436579 10.000700 
7.876340 0.000000 10.000000 
7.363000 0.000000 10.000000 
3.598220 1.712370 10.000000 
-0.000272 9.404620 10.000300 
10.000000 5.340100 10.000000 
4.470020 10.000000 10.000000 
10.000000 10.000000 7.501080 
8.162690 0.000000 0.000000 
0.000000 0.000000 2.135910 
0.000000 0.000000 2.657670 
-0.000449 -0.000449 0.548567 
-0.000138 10.000200 0.616896 
0.000000 6.016880 0.000000 
0.000000 4.041600 0.000000 
0.000000 0.000000 3.168720 
-0.000000 0.913801 6.119570 
-0.000000 1.354440 6.237760 
1.946970 0.000000 0.000000 
0.650094 9.999840 9.999870 
0.000000 3.378590 0.000000 
0.000000 8.663050 0.000000 
0.000000 0.000000 1.608230 
3.220030 0.000000 0.000000 
2.585900 0.000000 0.000000 
2.983620 4.256630 5.777570 
0.000000 2.710590 0.000000 
0.000000 10.000000 3.080070 
0.000000 5.359380 0.000000 
0.000000 6.675700 0.000000 
0.000000 10.000000 4.308330 
0.000000 10.000000 4.923420 
0.000000 10.000000 1.233660 
3.780030 10.000000 0.000000 
0.631573 9.999740 0.000260 
10.000000 10.000000 6.255190 
-0.000055 9.324760 -0.000061 
0.000000 10.000000 1.850050 
0.000000 10.000000 2.465480 
5.704520 10.000000 10.000000 
5.088930 10.000000 10.000000 
0.000000 10.000000 3.694230 
4.389610 2.902100 5.913330 
1.298120 10.000000 10.000000 
8.758280 10.000000 10.000000 
0.461216 3.960020 9.999680 
4.502920 2.340400 5.803580 
0.000000 10.000000 5.541980 
3.217230 10.000000 10.000000 
0.000000 10.000000 6.163900 
9.999680 9.999680 9.373330 
1.942730 10.000000 10.000000 
0.000000 10.000000 6.791080 
0.000000 10.000000 7.423780 
9.357230 10.000100 10.000100 
-0.000000 3.769650 8.672520 
-0.000000 3.887110 9.110890 
0.000105 9.999870 9.351690 
0.000000 8.828610 10.000000 
0.000000 8.252330 10.000000 
0.000000 3.587820 8.265310 
0.000000 7.126790 10.000000 
2.582570 10.000000 10.000000 
3.846380 10.000000 10.000000 
0.000000 0.000000 5.100060 
0.918004 3.879370 10.000000 
0.000000 6.036790 10.000000 
0.000000 6.576680 10.000000 
0.000000 5.510530 10.000000 
0.000000 5.000410 10.000000 
0.000376 3.961310 9.552940 
2.532920 3.090950 10.000000 
2.161940 3.350710 10.000000 
0.459350 0.000407 6.039730 
1.788160 0.000000 6.437120 
0.000278 0.462560 6.040150 
2.393230 4.404210 5.635140 
1.202860 4.587530 5.439270 
0.603634 4.635920 5.386240 
0.000000 3.108240 7.491770 
0.000000 3.373150 7.870110 
0.000000 2.812430 7.177100 
4.414680 4.176410 7.119120 
10.000000 10.000000 1.969400 
3.144210 0.000000 7.543140 
3.385030 0.000000 7.887080 
9.999830 0.000139 9.365400 
4.290110 4.015150 6.582640 
4.592930 1.766050 5.710610 
10.000000 1.352810 10.000000 
9.450100 -0.000450 10.000500 
0.000000 10.000000 8.061550 
10.000000 0.000000 8.727870 
5.882010 0.000000 10.000000 
5.400550 0.000000 10.000000 
10.000000 10.000000 8.124880 
2.183490 0.000000 6.664380 
2.552020 0.000000 6.922430 
3.830890 0.000000 8.901070 
3.906540 0.000000 9.183400 
4.479080 0.001066 9.998930 
6.858930 0.000000 10.000000 
3.395990 2.097270 10.000000 
3.140370 2.462350 10.000000 
10.000100 9.364240 10.000100 
7.517860 10.000000 0.000000 
4.704320 4.565900 9.415020 
4.599700 4.421830 8.255300 
9.999910 0.677273 9.999930 
6.929960 10.000000 10.000000 
4.940560 0.000000 10.000000 
6.897140 10.000000 0.000000 
10.000000 7.327700 10.000000 
10.000000 0.000000 6.833970 
10.000000 0.000000 5.589520 
10.000000 2.694480 10.000000 
10.000000 2.025490 10.000000 
10.000000 0.000000 6.210180 
10.000000 0.000000 7.461190 
10.000000 10.000000 6.877790 
10.000000 8.673750 10.000000 
10.000000 3.359140 10.000000 
10.000000 0.000000 8.092360 
8.398940 0.000000 10.000000 
8.925940 0.000000 10.000000 
10.000000 7.996790 10.000000 
10.000000 4.020860 10.000000 
10.000000 4.680810 10.000000 
10.000000 6.000180 10.000000 
10.000000 6.662440 10.000000 
6.317760 10.000000 10.000000 
9.999830 0.662319 0.000174 
8.151980 10.000000 10.000000 
7.541490 10.000000 10.000000 
6.937330 0.000000 0.000000 
10.000000 8.975100 0.000000 
10.000000 10.000000 3.776640 
10.000000 10.000000 5.012620 
10.000000 10.000000 5.633420 
10.000000 10.000000 3.164180 
8.754840 10.000000 0.000000 
10.000000 10.000000 2.560830 
4.405750 10.000000 0.000000 
9.369930 10.000000 0.000000 
10.000000 10.000000 0.930794 
10.000000 10.000000 1.396650 
8.137670 10.000000 0.000000 
6.275760 10.000000 0.000000 
5.653460 10.000000 0.000000 
5.030280 10.000000 0.000000 
10.000000 5.303970 0.000000 
-0.000475 4.509440 10.000500 
10.000000 4.640900 0.000000 
10.000000 3.977740 0.000000 
10.000000 3.314700 0.000000 
10.000000 0.000000 3.115250 
5.710020 0.000000 0.000000 
5.093380 0.000000 0.000000 
7.550090 0.000000 0.000000 
10.000000 1.988840 0.000000 
10.000000 0.000000 1.251200 
3.153040 10.000000 0.000000 
6.324180 0.000000 0.000000 
4.473490 0.000000 0.000000 
4.519320 4.313950 7.682820 
10.000000 0.000000 4.353070 
10.000000 0.000000 4.970580 
10.000000 0.000000 2.494700 
10.000000 0.000000 3.734710 
10.000000 0.000000 1.873150 
10.000000 2.651780 0.000000 
8.775280 0.000000 0.000000 
10.000200 -0.000164 0.634027 
9.387620 -0.000093 -0.000105 
10.000000 1.325730 0.000000 
10.000000 7.926650 0.000000 
10.000000 8.544960 0.000000 
3.890840 0.875188 10.000000 
3.773120 1.314510 10.000000 
1.894500 10.000000 0.000000 
2.524470 10.000000 0.000000 
10.000000 10.000000 4.393410 
10.000000 5.966530 0.000000 
10.000000 6.627390 0.000000 
10.000000 7.283230 0.000000 
1.800480 4.514110 5.519680 
4.270440 3.432270 6.025660 
3.574250 4.072700 5.940720 
3.009380 2.683380 7.169410 
3.567060 3.238920 6.662940 
4.703820 0.595631 5.582390 
4.657610 1.182360 5.637890 
4.659990 4.504280 8.832900 
0.501884 -0.000074 5.580240 
4.434730 3.994580 0.000000 
0.632320 10.000000 1.234170 
0.000000 7.993980 1.852710 
7.352370 0.662201 10.000000 
7.353590 0.000000 9.367650 
0.444082 1.744330 6.460120 
0.000000 0.589877 4.653500 
6.275860 9.324750 0.000000 
5.032910 10.000000 2.497770 
0.000000 7.998610 0.618103 
0.655070 0.679725 0.000000 
9.382390 10.000000 6.254810 
0.000000 5.494340 9.413730 
1.761830 3.532370 9.568410 
9.382050 4.640940 0.000000 
10.000000 7.992440 8.749460 
3.795890 5.326660 0.000000 
0.000000 0.560108 5.128010 
0.000000 8.720740 6.164760 
0.000000 7.497560 6.792650 
0.427406 2.485150 6.924080 
7.159460 0.000000 6.843710 
10.000000 4.638220 4.380020 
10.000000 4.640350 5.002040 
2.572930 2.020990 0.000000 
6.319260 8.655420 10.000000 
4.246610 0.000000 8.477670 
1.858350 5.891000 10.000000 
2.842890 0.394426 7.245120 
1.287680 0.000000 2.697340 
10.000000 8.579370 0.685474 
2.522250 0.399486 6.955830 
1.027890 0.000000 5.650520 
0.434527 2.126920 6.680030 
0.000000 9.334440 4.308860 
2.573350 6.952270 10.000000 
0.580465 0.000000 4.656030 
2.964300 3.629840 10.000000 
10.000000 6.634090 2.516150 
2.827970 2.754320 9.591080 
1.747230 3.467170 9.141740 
1.301800 0.679406 0.000000 
0.000000 4.684790 2.404850 
10.000000 9.307640 1.957100 
5.703450 10.000000 9.370400 
1.945030 8.792570 10.000000 
10.000000 3.976930 1.254340 
9.378980 8.566650 0.000000 
4.913020 0.551715 10.000000 
4.451160 0.502779 10.000000 
3.557080 1.699060 9.568030 
8.162200 0.000000 0.624731 
7.705840 3.339660 10.000000 
0.000000 1.777350 4.798720 
10.000000 5.338610 9.373180 
10.000000 9.325800 5.633280 
0.000000 7.335530 0.617829 
8.913940 1.348840 10.000000 
8.161840 0.663015 0.000000 
0.000000 3.374800 1.157870 
9.459420 0.676158 10.000000 
10.000000 3.981370 5.619160 
3.119260 0.392611 7.561850 
3.806870 0.000000 4.750680 
0.000000 4.647910 4.233750 
6.302360 3.317810 0.000000 
9.408690 0.000000 5.589560 
5.089630 9.337910 10.000000 
0.633332 7.335900 0.000000 
0.647220 2.037020 0.000000 
1.301630 0.000000 0.548513 
3.174450 4.671920 0.000000 
2.045370 3.033710 8.404050 
2.094520 3.151460 8.779150 
1.721120 3.348040 8.729190 
0.000000 9.329830 2.466320 
9.385020 2.651720 -0.000000 
5.087700 10.000000 9.368480 
2.583850 9.383360 10.000000 
3.848310 9.359500 10.000000 
0.000000 1.360000 0.546694 
3.850080 0.000000 3.550220 
0.642126 3.376830 0.000000 
5.709420 0.000000 1.232750 
3.154810 10.000000 1.862780 
0.000000 3.282960 3.997370 
9.382920 10.000000 6.877440 
5.093400 0.000000 1.218060 
0.000000 4.026920 2.358640 
8.764940 10.000000 6.253840 
1.264450 8.663670 0.000000 
4.442890 3.331490 0.000000 
5.678180 10.000000 6.236740 
10.000000 0.673239 8.093360 
2.585430 0.000000 0.566858 
3.220590 0.000000 0.577601 
2.584800 0.675026 0.000000 
3.218860 0.672463 0.000000 
3.849590 0.000000 0.589662 
3.847490 0.670352 0.000000 
1.289460 10.000000 7.430890 
6.319110 1.327950 0.000000 
0.000000 8.663680 0.617957 
0.000000 3.349930 2.877550 
1.279340 4.034870 0.000000 
[...]
CELL_DATA 3934
SCALARS u float 1
LOOKUP_TABLE default
50.274380
113.822918
112.846176
157.477610
82.266096
157.598608
232.314320
82.757291
7.546594
157.948992
76.991775
83.887831
87.376136
79.538061
90.402263
106.958070
106.442180
112.990020
113.104210
118.558200
117.711120
123.206610
111.692100
111.553120
117.842700
143.884790
151.247180
144.084400
156.359370
151.573820
101.667700
98.355020
101.642700
86.633162
90.032195
78.707964
76.531944
83.547091
66.341407
61.044953
47.058308
227.341540
222.346460
36.408042
32.593482
71.651589
33.292650
38.340954
68.910472
63.983599
99.857462
95.135926
104.101831
45.199997
39.904168
23.821494
18.392178
12.945720
12.727271
17.916860
87.376733
92.432304
128.903195
132.866927
74.010281
79.243360
152.452100
147.262302
59.215007
64.101986
54.618081
85.057410
79.782210
143.692933
139.169387
16.094242
11.817297
40.114852
43.715744
122.809890
124.823090
120.265317
127.084250
126.996840
116.658294
141.008849
145.183846
136.901514
124.424630
122.329450
152.939886
200.414650
195.157330
188.139190
193.072700
217.351830
212.357450
67.995727
72.899080
24.509180
20.336099
28.601636
87.257546
55.760248
50.481615
34.576460
59.201497
54.620774
23.077530
162.827964
29.215142
76.969236
28.203277
104.026950
96.974610
101.582350
108.065620
96.293670
103.233460
101.415090
108.150500
108.765920
113.350750
106.963407
102.042571
116.832848
111.890750
121.802984
92.192819
107.538231
112.550746
207.367660
202.384250
97.120206
197.985740
202.889870
101.925600
101.662140
108.141760
96.518490
97.393100
103.298920
113.396490
108.405620
108.937430
104.466080
167.980820
222.473620
227.364170
117.216771
92.908190
100.346200
91.516850
98.447710
104.390980
126.810039
178.147920
183.168010
131.861139
173.087180
136.958478
142.093655
104.988801
100.202478
109.535585
148.291030
95.161689
134.716030
130.348069
126.067200
121.869805
117.795898
126.285080
69.218843
91.292680
98.313730
92.449090
104.140180
99.825950
227.069330
91.121232
83.326804
87.904360
95.518530
81.439084
88.492681
86.339730
93.399770
94.781515
99.486070
89.905760
84.561075
123.047090
129.699190
134.396130
123.757560
117.315650
128.660650
122.958380
129.364650
117.283020
123.446590
172.837580
168.100260
90.192276
152.897077
86.650380
88.458940
93.594200
96.107720
99.775550
168.761990
163.393550
153.673043
147.785493
124.976578
121.111363
74.452939
108.079305
117.263586
126.024180
142.482958
137.493550
139.207150
138.943390
146.458210
151.118100
146.085080
207.789330
212.686070
132.514801
216.327540
210.995120
137.595753
132.538014
127.516332
122.518834
179.390360
174.094560
142.682914
221.691740
184.660200
149.410619
189.911840
205.691930
88.004980
217.582020
58.180098
63.090758
151.246323
187.492380
182.562880
197.409140
192.443830
177.667530
147.519064
152.609010
117.553431
163.518856
127.533140
122.547137
125.126637
119.819904
114.514655
109.210959
103.908196
107.610558
102.644417
48.318035
53.258519
43.347660
98.606686
93.305315
92.693440
87.715201
102.514121
128.549990
135.409990
128.400280
117.541077
112.574541
97.671990
77.803839
140.988899
146.205764
119.787130
97.478154
130.431126
135.724982
102.501800
106.443570
106.476460
95.108721
91.769756
88.735625
83.980881
81.796061
133.957140
133.724120
141.006170
51.692784
70.052210
64.797460
69.748645
75.002940
97.259479
92.320524
81.093838
86.428829
81.513942
76.189264
141.989064
146.194269
131.697018
135.806410
68.001978
72.791873
48.628722
45.271894
122.143819
127.111975
132.534660
137.521560
142.549130
137.556570
71.272663
76.589384
18.152774
197.432830
202.422050
120.979815
117.022097
118.643560
120.752020
114.874330
109.574314
211.307890
216.661580
211.636350
206.284770
75.605437
70.342079
75.308914
80.575218
51.688236
121.711834
126.787729
121.640430
116.449130
117.223219
122.105338
116.634261
111.560461
77.774564
82.910238
115.222409
109.575157
114.116321
119.599875
149.500860
154.831510
149.837900
144.507010
154.506340
159.835440
39.183580
33.831515
38.917409
44.245698
197.529380
192.167430
197.033250
202.410990
102.797541
107.631713
139.674160
134.944140
139.076700
144.057510
88.399084
83.198824
33.905443
29.815528
35.244191
39.382275
151.543164
157.132993
78.003863
56.606764
111.525773
106.552699
153.744430
148.930270
153.378570
158.363170
45.208068
48.597535
133.623880
135.092250
150.542230
155.909020
150.900150
145.536810
123.059090
123.000220
114.174950
116.392590
23.325904
58.808974
64.413822
59.627960
54.108866
167.259320
162.287880
192.924030
197.843740
163.193520
158.437550
163.366490
168.213940
119.225350
124.538540
119.530515
114.222119
146.573298
141.352821
121.089738
125.296463
120.380500
118.182740
72.985478
77.891904
165.921320
161.093830
165.671710
170.622940
53.781320
59.267057
56.434280
50.701785
195.382910
190.114440
196.993300
192.012660
65.965029
159.972330
154.728839
159.045413
164.356760
73.288639
78.194021
38.334570
43.886499
39.243057
33.788401
154.204610
159.529800
149.177160
93.509212
69.149344
65.380019
72.016177
72.547264
78.709715
73.969255
68.093815
79.621018
74.363558
79.288680
84.552343
122.810578
117.744301
187.820280
192.666070
66.102731
71.397985
23.570504
28.972000
17.059077
22.315892
65.356982
60.096572
65.084586
111.797680
107.118510
108.984210
113.522090
118.003760
109.490390
96.689841
91.770684
98.982660
93.688851
187.991950
173.180300
178.098620
182.971200
17.289283
22.796706
61.067363
56.545733
62.285255
67.141054
34.342170
39.681343
58.134331
53.220091
58.201877
63.154942
112.445290
117.406190
122.460240
117.489330
59.399278
65.922465
61.899989
55.669029
207.417330
53.047200
48.189276
53.077335
48.502312
192.476980
197.473200
82.035513
76.709509
81.758105
87.088737
59.536006
64.490989
167.584420
172.633670
177.622530
172.584920
153.171583
148.055814
27.555659
32.779982
37.967584
28.465812
33.572013
38.640534
43.105265
43.669485
142.126728
147.274515
152.444680
147.291900
63.833500
58.553525
63.472246
68.752040
81.916815
51.568088
57.570963
47.270542
44.993104
44.759092
50.054463
162.617360
167.581340
172.586480
167.647090
167.553710
172.557220
177.542540
172.546050
102.435494
107.390070
107.481361
118.310168
122.873485
112.468338
162.551820
167.561560
53.198254
49.554922
28.305019
115.972261
110.646720
115.594185
120.915944
102.192826
107.122581
112.207650
107.268440
44.657005
97.568472
55.350975
60.661638
132.556300
137.558911
88.771667
83.484092
88.394379
83.099889
55.329059
55.088025
60.353813
149.010410
144.347450
117.537396
122.550541
99.986090
95.787270
211.391590
206.068210
107.183663
112.179722
127.684556
123.779188
103.051207
97.984597
102.851764
107.887494
84.395224
89.951685
85.004962
79.534336
142.509670
147.502420
152.534610
147.540390
147.082220
142.706270
147.280790
151.869490
21.364350
25.630006
78.163813
73.126518
78.113924
83.142201
147.726143
142.476298
130.135880
125.227230
128.443520
133.879800
155.176340
150.186510
144.848340
106.064758
100.742390
105.695800
111.021385
135.105089
139.605340
21.599569
25.855460
111.230558
105.989546
158.545190
163.886550
158.769460
153.421530
190.890010
185.691680
190.628180
195.846410
158.101128
172.669670
177.583380
165.168720
160.168400
152.451222
127.030777
140.003245
134.740533
139.046978
144.255427
159.001020
164.322370
159.251220
153.924550
63.310951
76.443032
72.982844
67.209458
182.670090
187.728590
192.673300
187.631850
132.180920
137.189160
142.307170
137.290090
26.680583
142.014970
137.967400
126.926504
121.945008
173.001840
178.040570
157.639375
162.804420
148.319900
165.142070
169.611650
205.976700
200.668610
222.394170
104.984535
99.694846
104.633997
109.929184
111.886798
115.621101
109.940679
106.316829
137.017059
142.172520
28.717083
34.090486
143.036357
138.405182
167.558710
177.531600
172.552680
71.145626
76.172654
81.474834
98.634142
103.666400
167.928060
31.470279
27.164587
148.760563
153.410490
49.807164
54.829493
163.661070
158.287938
112.840343
106.963321
110.978115
116.738725
132.559350
142.572010
137.569160
53.952954
48.661953
53.620715
58.902799
70.619549
143.071130
125.111556
119.657945
170.511290
165.515870
129.420827
134.193900
139.519070
134.531550
129.209300
126.155065
130.631010
112.387864
116.210352
187.344010
121.678273
112.997798
177.541900
182.523030
122.252750
101.203640
101.612471
96.260490
74.687436
69.432535
104.277505
41.727769
47.314060
43.659464
38.024668
147.567110
152.559130
157.569650
152.580630
92.033600
95.647010
86.848784
101.827800
106.816984
122.522090
127.544910
102.177573
63.316335
68.052687
58.820595
132.057930
137.092630
142.234920
37.862427
43.357402
170.248460
174.816730
201.982650
31.002122
36.431035
40.776882
168.227930
156.294960
161.739990
156.691240
151.247740
75.286981
80.644656
75.761598
70.422796
88.119990
93.406959
47.093498
49.089618
52.862384
50.578599
56.283472
55.009015
58.957098
152.505020
157.536980
41.614528
197.611720
192.584070
124.570258
129.265270
93.004854
98.305505
131.298530
137.414570
91.340797
129.481578
133.662085
197.717070
202.640190
126.678360
121.315329
126.253191
131.610770
217.129750
222.072810
80.261669
85.534172
127.329060
132.301260
137.385390
132.403850
123.890020
124.220910
118.905440
129.407020
133.797652
217.410180
137.724411
180.533600
185.875890
180.866770
175.516740
72.116151
72.949347
76.756114
76.229350
80.584010
32.011051
37.342972
184.852120
185.056290
179.779970
212.415420
73.393884
79.638650
155.536920
145.193920
186.620770
187.040820
181.641610
179.586820
174.501550
133.031111
132.377876
127.584389
113.971625
107.975350
103.896203
137.887834
143.239360
138.195630
132.853102
153.665120
148.314640
45.014143
50.756434
206.443640
201.124320
97.994130
103.297980
182.772150
187.852530
192.789500
65.863765
70.887742
69.103242
74.023600
102.326450
97.380944
167.844180
172.901660
50.276819
61.771083
56.598866
170.729420
165.912150
170.759050
175.675630
96.731289
101.847043
202.757280
183.036590
63.477002
69.193171
105.863383
111.166762
133.833800
138.266940
207.666010
142.572740
111.574820
113.376580
108.856670
106.942500
114.426720
110.015080
117.806430
118.799550
222.014540
117.291180
122.242610
122.366830
196.602720
191.607610
98.457349
101.617673
96.662826
103.277287
106.439875
111.273047
116.550375
106.197722
112.918118
118.232560
113.259840
107.949837
206.850480
201.497830
211.786620
103.990002
98.576827
103.391455
108.692897
39.776602
34.100822
182.509580
187.480610
153.708220
158.544770
68.382281
73.664422
171.271740
176.669170
171.699830
166.290250
39.438844
44.509156
118.700385
113.404863
118.107727
123.305919
105.960410
81.611774
85.159560
112.968680
63.148015
68.122119
152.855634
157.814870
163.027570
158.271270
62.605168
69.264588
112.341410
75.894051
81.183978
185.477310
180.381350
185.156170
190.329730
86.492227
59.308764
62.447146
65.292019
91.729852
85.534997
85.918689
91.956904
207.305720
201.930930
212.211720
164.099670
169.412780
67.623865
91.495297
86.179732
91.162873
96.486411
196.169460
200.780210
57.917104
63.071858
216.992680
211.983430
206.617940
169.631170
164.571280
86.795188
91.819132
106.538466
100.702265
144.157837
128.427356
101.719541
112.187074
107.843465
42.844510
147.636228
45.605487
41.452451
35.684157
174.933650
169.886020
157.621150
49.391669
80.141283
74.718318
195.533500
80.883202
162.552180
157.552620
201.606610
206.979940
123.954031
93.332706
98.205388
142.581300
148.587300
143.537470
127.917674
167.805150
155.614990
150.445686
179.991500
119.968945
89.838350
92.847240
88.585390
92.130281
97.160323
182.597220
72.101179
76.687621
136.520610
132.974920
112.515261
171.957650
166.609310
171.236690
176.618960
182.562990
100.223600
127.203610
99.314744
93.743408
137.464440
142.453010
133.063077
177.801730
172.621850
177.274250
182.519280
187.488310
138.231129
97.555151
100.409456
94.047095
145.868590
148.556460
143.401369
172.188370
30.029203
192.520070
197.530940
202.475120
129.539130
191.655180
186.288670
191.219580
196.564780
174.304120
41.882499
137.220700
102.975790
133.512720
138.842350
133.853280
128.528600
162.559470
42.638065
133.863227
113.592650
113.914000
108.604900
216.739290
85.858736
90.825306
96.136925
212.572980
217.480790
83.855461
78.574477
137.825517
111.407293
116.365614
187.516030
147.356910
49.270366
43.965195
48.974800
54.261746
65.548147
70.869643
103.609386
108.914856
130.492477
125.074209
192.451890
88.064514
83.048047
87.957767
92.961607
79.944401
84.883571
47.879059
132.069475
130.159027
135.481856
91.627094
86.595694
99.598340
94.679880
128.544461
137.013556
141.887756
85.526975
90.898537
85.992712
140.810712
146.149999
124.842234
131.985242
120.178541
73.057557
68.073436
77.973850
115.231326
142.956053
147.453340
152.474030
157.524200
207.479600
69.894064
112.715283
107.712750
127.844074
122.858477
201.262160
97.749298
92.769547
102.727775
49.550313
87.786315
82.799884
59.226339
64.172236
148.874310
143.846380
138.512660
52.648043
100.594231
95.142193
87.867945
82.880890
173.033900
163.296840
177.128320
186.792420
181.408700
181.994450
172.703330
177.797640
177.695960
32.755980
127.063850
60.593843
65.616076
140.663430
146.960750
162.723100
88.204346
93.106317
147.587160
152.609800
147.607580
55.548035
95.416153
89.565959
50.019530
125.853635
131.172664
72.883758
78.122776
108.188094
175.205630
170.180580
164.853350
162.576020
157.595060
182.078790
123.550560
118.573550
140.517080
91.590805
94.808420
99.749510
86.509378
175.581620
180.592630
169.203970
177.571550
67.445642
71.831007
67.811818
71.570941
65.196848
202.545660
180.242360
90.488033
85.208811
90.153955
95.438799
114.446580
110.037850
118.843090
60.820933
53.761775
160.684970
174.705440
112.052797
117.148330
126.345375
122.317627
175.316980
57.443644
62.828211
127.502960
54.557860
103.090319
82.963691
147.316150
152.435600
175.751020
180.728240
147.401800
152.451230
157.521000
162.565040
167.625660
162.900300
167.981200
157.760860
162.147280
167.409180
160.526320
161.301120
136.507129
176.252240
54.829728
60.208624
190.338020
156.232070
151.275650
101.468385
128.870950
97.846476
117.886061
122.011970
162.753590
157.585650
106.441843
111.797471
114.742015
109.198079
118.437155
127.430700
120.836965
200.950390
195.634880
195.920790
115.488189
127.732360
187.561780
78.047218
73.108255
94.412383
99.344390
47.294738
97.402269
94.136293
97.061984
142.620140
146.946410
78.939983
37.154984
196.243950
191.232600
140.056770
146.220420
142.381800
165.890490
160.903460
117.166601
127.555907
162.591000
167.682610
116.767778
108.455437
111.563856
116.061529
152.673340
157.652390
46.368589
51.940832
78.184887
73.076785
83.253407
79.141340
165.758490
161.020360
157.550770
162.691280
167.762010
162.630910
101.103536
68.048599
105.336694
100.041258
110.283920
104.317120
105.710430
99.822230
161.202840
156.506970
61.844453
144.171240
139.179320
100.834584
156.112450
151.520530
156.425050
160.875150
151.771200
92.854818
179.992790
90.432375
182.898450
108.282630
177.920130
172.797300
190.894940
207.559790
212.482100
170.779560
165.911760
59.826355
113.201019
108.325311
124.050907
94.057768
95.785824
131.948529
106.814862
103.317284
100.843587
185.288620
180.968930
185.925360
120.539849
128.183740
123.205860
176.050580
130.787082
125.484556
133.177130
136.078286
84.211295
152.438020
94.757597
89.482424
186.230590
129.856330
135.181210
65.055460
100.388001
139.858330
68.126823
95.831029
168.998020
89.821011
95.097890
130.598800
133.121970
116.093590
113.794550
89.870810
92.998480
97.619210
166.727250
109.225770
104.490770
111.040764
140.192810
182.547990
132.482170
95.422745
122.097550
175.867730
181.237760
170.876580
89.133709
157.526640
185.560760
190.596560
102.372860
104.452070
152.536540
105.122172
134.861860
104.672340
116.990980
88.424135
161.260590
96.829417
105.734580
121.728552
94.708506
102.197010
83.424612
88.884528
81.483993
85.090440
97.420720
156.820980
134.921200
88.620370
84.476080
80.525530
100.562370
95.200670
95.679140
90.346640
100.238140
105.588750
95.367680
100.692520
127.555400
122.085170
122.200810
117.061600
124.526110
130.890810
119.572930
125.562110
79.001850
73.725050
78.650342
83.929203
104.016190
98.957380
185.278660
180.087200
180.204010
174.992390
175.674450
170.603320
170.575230
165.464520
175.525500
180.644560
170.415110
175.563830
111.712270
106.355150
106.761190
101.417270
111.379650
116.741870
106.431340
111.781880
152.882343
148.156637
153.198730
157.989030
63.976030
58.441970
59.291120
53.839710
63.666720
69.137830
58.998510
64.407160
115.348150
110.042050
110.351684
105.051288
114.997610
120.308830
109.999395
115.304320
129.914400
124.611030
124.952210
119.648200
129.590320
134.902220
124.614710
129.927150
69.818788
71.498905
63.979957
66.160752
75.856467
74.527400
70.679569
68.844020
96.413677
101.766061
91.496839
96.840724
160.194370
154.874170
155.191270
149.863090
165.036060
159.885650
159.888800
154.705010
164.658230
169.883660
159.522670
164.771170
98.145158
93.161305
103.047908
98.068657
187.111190
181.705860
182.101820
176.690560
186.680720
192.074760
181.672920
187.072900
125.523575
129.856186
130.597680
125.266960
125.575999
120.255706
130.224670
135.558540
125.206981
130.529096
196.656760
191.290900
191.646570
186.271480
142.842931
147.632628
137.494326
142.372610
131.617660
126.193740
126.650840
121.251050
131.223880
136.651230
126.277590
131.682140
132.054340
127.083980
121.694930
137.092670
126.721030
132.116500
86.978767
116.377060
110.995610
111.373020
105.990750
116.056710
121.457000
111.056860
116.449210
88.099480
82.484540
83.651960
78.123680
88.071540
93.496520
83.498480
88.898940
99.224760
93.966110
94.369700
89.092550
99.048590
104.296760
94.139750
99.403040
201.046760
195.753430
144.546080
139.234310
139.545780
134.232790
84.418590
78.819740
79.679100
74.183170
83.987990
89.511690
79.316140
84.760660
90.830516
85.537328
90.512362
95.809616
106.091620
100.767510
101.124135
105.751850
111.079320
100.780744
106.100976
113.939720
108.888000
108.899250
103.767110
113.958040
119.083890
108.835940
114.012170
111.602912
115.213379
106.649951
110.242280
172.948810
167.864510
172.666400
177.853340
134.309757
26.852447
22.522547
32.137293
27.751616
141.436100
136.821200
135.964730
131.291140
141.286920
146.063470
135.827790
140.650990
125.970870
120.540940
120.428070
114.753400
125.143250
130.709610
119.566380
125.300930
150.859030
145.464080
150.434490
155.606590
145.044030
150.319850
139.879520
134.558730
134.895690
129.575800
84.586786
90.070632
79.782088
85.209363
76.977180
71.580670
72.631210
67.203850
77.475190
82.740700
72.802220
78.132390
63.595220
58.573045
60.982540
55.687529
63.997894
68.893520
61.286462
66.511760
139.452810
134.272640
134.344770
129.123860
139.171410
144.409290
134.057830
139.321080
72.424660
67.336716
69.374960
64.093428
73.961854
78.890560
70.450079
75.632600
77.706550
74.821100
83.945510
80.915460
123.754150
118.794260
118.810430
113.663250
124.152360
129.216410
119.020310
124.187060
162.260500
156.765610
157.279340
151.729180
155.521320
150.433500
150.277450
145.163700
154.808280
159.995740
149.598820
154.799440
166.317680
160.890080
161.274400
155.841420
165.912030
171.313500
160.875690
166.283040
121.011520
115.557830
115.714310
110.183180
125.953350
115.159940
120.716410
105.559070
100.581740
110.612900
105.643270
175.116830
121.701385
115.940235
125.928355
120.321079
190.816630
185.585460
190.495400
104.408400
99.123160
99.417593
94.134079
104.054680
109.348160
99.061268
104.351960
139.096442
133.839181
143.573659
138.394517
152.204480
147.198370
157.235400
152.239740
138.890970
134.049560
133.493820
128.755540
138.061660
143.181750
132.783480
137.817610
37.638000
33.199113
37.440631
42.901880
32.966751
38.382635
71.394760
65.523720
67.345610
61.583720
71.194630
76.885460
67.098100
72.720330
152.138560
147.066720
157.155780
152.100840
177.610020
172.476140
182.507690
177.404720
63.893270
58.553540
59.086066
53.768960
63.672540
68.980410
58.814614
64.108059
155.922300
150.555210
150.942770
145.576980
155.546750
160.911840
150.561390
155.927490
121.829590
116.864750
126.910010
121.938830
94.490370
89.218840
89.557750
84.283750
94.197820
99.469090
89.242570
94.516920
139.985533
134.651560
144.348198