# vtk DataFile Version 2.0
Unstructured Grid Example
ASCII
DATASET UNSTRUCTURED_GRID
POINTS 8979 float
0.774719 -0.375372 0.170963 
-0.886029 0.573838 -0.172475 
-0.995713 0.653026 0.064911 
-0.145175 1.176550 0.068887 
-0.323782 -0.754503 -0.084873 
-0.196931 -0.908901 0.170971 
-0.639917 -0.824482 -0.172173 
-0.302600 -1.135750 0.069478 
-0.780707 0.171478 -0.077982 
-1.037940 0.012401 -0.174581 
-0.800079 0.050162 -0.078663 
-0.063514 0.807072 -0.083787 
-0.677001 0.820839 -0.170431 
0.650601 0.523480 -0.086533 
-0.770338 -0.234558 -0.080717 
-0.703840 0.957155 0.069409 
-0.494573 1.080110 0.069685 
-0.679428 -0.788259 -0.172546 
-0.768924 0.556247 0.182278 
-1.030460 0.172257 -0.174174 
-0.972879 -0.034604 0.178912 
-0.064257 -1.163690 0.078186 
-0.212960 -1.056580 -0.166056 
0.285879 -1.112390 0.088232 
0.175185 -0.883225 0.172205 
0.498208 -0.719447 0.174520 
0.626979 -0.587540 -0.087720 
-0.055196 -0.916090 0.171507 
1.074800 -0.382314 -0.143744 
0.959778 -0.590589 0.099530 
0.427010 0.809345 0.174214 
0.164723 0.910048 0.176204 
0.902304 0.719025 0.088770 
0.036219 1.182130 0.068655 
0.788485 0.306437 -0.086411 
1.123860 0.132075 -0.148989 
0.622516 0.555261 -0.086541 
0.210470 0.898524 0.175845 
0.651151 0.876129 -0.162729 
0.498027 1.064930 0.075083 
0.683498 -0.520885 -0.088159 
-0.717304 -0.750765 -0.172879 
-0.788110 -0.671406 -0.173519 
-0.753689 -0.711786 -0.173197 
-0.635114 -0.997414 0.056026 
-0.590185 -0.555689 -0.083659 
-0.467093 -0.667570 -0.084669 
-0.531589 -0.614574 -0.084224 
-0.397413 -0.714171 -0.084891 
-0.124044 -1.161760 0.076212 
-0.082748 -0.827440 -0.083978 
-0.166057 -0.813099 -0.084240 
-0.246611 -0.787952 -0.084671 
-0.049329 -1.088160 -0.162750 
-0.285644 -0.772106 -0.084794 
-0.265589 -1.039650 -0.167009 
-0.004733 -1.162680 0.080061 
-0.104600 -1.080620 -0.163905 
-0.159336 -1.070300 -0.165013 
-0.582888 -1.027470 0.057931 
0.006505 -1.093200 -0.161514 
-0.510741 -0.921293 -0.170771 
-0.758391 -0.274038 -0.081060 
-0.667166 -0.458020 -0.082723 
-0.642962 -0.491559 -0.083038 
-1.023070 -0.145825 -0.174852 
-1.035130 -0.040656 -0.174686 
-1.030000 -0.093411 -0.174778 
-0.851281 -0.586297 -0.174061 
-0.906066 -0.495307 -0.174490 
-0.929730 -0.447914 -0.174627 
-1.038180 0.065692 -0.174464 
-0.959810 0.430419 -0.173184 
-1.010430 0.277357 -0.173821 
-0.979258 0.380242 -0.173407 
-1.022160 0.225192 -0.174006 
-0.996045 0.329125 -0.173620 
-0.589664 0.886466 -0.169918 
-0.913039 0.527278 -0.172731 
-0.025828 1.070790 -0.168553 
-0.543298 0.915503 -0.169753 
-0.436467 0.828859 0.180418 
-0.295070 1.025930 -0.169490 
-0.134905 1.062560 -0.168911 
-0.080407 1.069370 -0.168651 
-0.323831 1.142580 0.069496 
-0.188883 1.052320 -0.169160 
-0.104396 0.802214 -0.083222 
-0.346729 1.008830 -0.169543 
-0.549334 1.053550 0.069671 
-0.264782 1.156940 0.069314 
-0.495890 0.942504 -0.169649 
-0.856584 0.618900 -0.172179 
-0.634302 0.855039 -0.170145 
-0.755429 0.745701 -0.171103 
-0.438777 1.103960 0.069676 
0.345087 0.744284 -0.087288 
-0.185300 0.786349 -0.082066 
0.019017 0.809471 -0.084859 
-0.264690 0.763364 -0.080895 
-0.961642 0.113106 0.179833 
-0.303448 0.749199 -0.080330 
-0.413631 0.693324 -0.078886 
0.853630 0.053929 -0.087387 
0.841344 0.140774 -0.086879 
-0.378130 0.714195 -0.079334 
-0.635269 0.695775 0.181845 
-0.513583 0.621501 -0.077660 
-0.481438 0.646949 -0.078034 
-0.573798 0.565592 -0.077131 
-0.732316 0.327904 -0.077263 
-0.544479 0.594307 -0.077353 
-1.084860 0.493335 0.061505 
-0.716244 0.365589 -0.077131 
-0.770703 0.211239 -0.077782 
-0.746626 0.289556 -0.077428 
-0.802259 -0.031624 -0.079179 
-1.191010 0.081910 0.052662 
-1.163780 0.262977 0.056450 
-1.176120 0.202953 0.055197 
-0.971682 0.014869 0.179213 
-0.205100 1.168230 0.069099 
-0.381710 1.124910 0.069614 
-0.519197 0.781086 0.180991 
-0.921541 0.749258 0.066575 
-0.881707 0.794785 0.067332 
-0.839975 0.838858 0.068032 
-0.023499 0.931047 0.177603 
-0.118471 0.925812 0.178337 
-0.165715 0.919195 0.178713 
-0.349897 0.868811 0.179890 
-0.892652 0.348076 0.181227 
-0.871882 0.392066 0.181491 
-0.824188 0.476786 0.181990 
-0.797408 0.517211 0.182163 
-0.951122 -0.231624 0.177624 
-0.939662 -0.280018 0.177237 
-0.967395 -0.133716 0.178300 
-0.676008 -0.692999 0.173340 
-0.557263 -0.779883 0.172447 
-0.908221 -0.374788 0.176354 
-0.925567 -0.327899 0.176806 
-0.837507 -0.506238 0.175096 
-0.809366 -0.547262 0.174726 
-0.149622 -0.913630 0.171152 
-0.946135 -0.714542 0.047540 
-0.863639 -0.463938 0.175488 
-0.908210 -0.761271 0.048263 
-0.867668 -0.806482 0.049144 
-0.825174 -0.849706 0.050150 
-1.047170 -0.563858 0.046121 
-1.075680 -0.510043 0.045955 
-0.981731 -0.665995 0.046955 
-1.100900 -0.454341 0.045981 
-1.122970 -0.397491 0.046165 
-1.157830 -0.280566 0.046990 
-1.170440 -0.221129 0.047642 
0.456717 -0.722548 -0.086235 
-0.360882 -1.119780 0.067006 
-0.515016 -0.804239 0.172167 
-0.474103 -1.079070 0.062214 
-0.007963 -0.914138 0.171634 
-0.244107 -0.901952 0.170869 
-0.638113 -0.724287 0.173013 
-0.427798 -0.846642 0.171613 
0.085104 -0.903988 0.171833 
0.683156 -0.526862 0.174341 
0.418085 -0.742547 -0.085898 
0.385010 -0.793676 0.173954 
0.532938 -0.690989 0.174596 
0.552717 -0.995477 0.094247 
0.219263 -0.869466 0.172508 
0.303893 -0.834579 0.173265 
0.038968 -0.910183 0.171734 
0.396010 -1.072350 0.090788 
0.501787 -1.023500 0.093163 
0.449503 -1.049130 0.092017 
0.342989 -1.062700 -0.153001 
0.341515 -1.093590 0.089551 
0.602391 -0.965115 0.095282 
0.171840 -0.821554 -0.084274 
0.928996 -0.639463 0.099238 
0.987917 -0.540382 0.099801 
1.096140 -0.274031 0.100208 
0.834650 -0.209887 0.173593 
1.126240 -0.104062 0.099668 
1.131850 0.069220 0.098840 
0.696656 -0.896903 0.096924 
0.740657 -0.858844 0.097480 
0.895491 -0.686450 0.098943 
0.860184 -0.732300 0.098625 
0.732279 -0.453245 0.174044 
0.792475 -0.335028 0.173711 
0.754073 -0.414719 0.173905 
0.844055 -0.167459 0.173564 
0.776531 -0.372674 -0.088864 
0.784128 0.400524 0.173260 
0.815206 0.315900 0.173155 
0.225231 0.783017 -0.086845 
0.184286 0.791781 -0.086555 
0.608547 0.665296 0.173958 
0.575492 0.697570 0.173976 
0.540675 0.728154 0.173991 
0.466447 0.784345 0.174081 
0.255685 0.885403 0.175470 
0.651229 0.971509 0.079823 
0.866616 0.766202 0.087396 
0.639585 0.631333 0.173922 
0.787931 0.855457 0.084467 
0.561518 0.613963 -0.086581 
0.744990 0.896897 0.082941 
0.935601 0.670443 0.090041 
0.299774 1.029190 -0.167235 
0.506220 0.956450 -0.165064 
0.137918 1.059930 -0.168191 
1.020750 0.516906 0.093436 
0.129249 -0.827300 -0.084114 
0.769539 0.345351 -0.086363 
1.112260 0.241966 0.097549 
0.966277 0.620401 0.091237 
1.065750 0.409108 0.095348 
0.726563 0.420079 -0.086429 
0.805258 0.266315 -0.086467 
1.045770 0.407517 -0.152572 
0.702768 0.455747 -0.086458 
0.749136 0.383229 -0.086383 
0.493873 0.664677 -0.086858 
0.383520 0.727079 -0.087275 
0.603961 0.905397 -0.163557 
0.696945 0.844181 -0.161868 
0.455720 0.978073 -0.165702 
0.246377 1.041810 -0.167623 
0.083152 1.065510 -0.168363 
0.273048 1.146280 0.070429 
0.592797 0.585454 -0.086546 
1.107910 -0.270535 -0.144780 
1.130820 0.075025 -0.148282 
1.085630 0.300074 -0.151133 
1.067030 0.354175 -0.151842 
0.996268 0.510488 -0.154175 
0.934331 0.606059 -0.156029 
1.022240 0.459684 -0.153342 
0.966906 0.559382 -0.155079 
0.656225 -0.554988 -0.087959 
1.092520 -0.326809 -0.144247 
0.978068 -0.593064 -0.142674 
1.054820 -0.436957 -0.143315 
1.129410 -0.156203 -0.145839 
0.756222 -0.411634 -0.088720 
1.109190 -0.218048 0.100062 
0.596555 -0.618917 -0.087488 
0.733993 -0.449354 -0.088553 
0.823700 -0.250135 -0.088984 
0.855959 -0.033872 -0.087971 
0.062771 -1.095510 -0.160182 
0.451590 -1.029110 -0.150390 
0.175646 -1.091270 -0.157276 
0.606853 -0.954774 -0.146865 
0.287533 -1.075110 -0.154365 
0.044112 -0.833076 -0.083933 
0.001690 -0.833389 -0.083877 
0.378653 -0.760866 -0.085560 
0.338433 -0.777189 -0.085288 
0.836209 -0.777693 -0.143183 
0.794964 -0.819130 -0.143569 
0.860497 -0.035070 0.173465 
-0.242352 1.040240 -0.169362 
-0.960510 -0.182916 0.177971 
0.101752 0.804191 -0.085814 
0.528409 0.640395 -0.086687 
1.014450 -0.489104 0.100016 
0.060366 0.807531 -0.085339 
1.136450 -0.040340 -0.146954 
-0.780797 -0.890297 0.051312 
0.656113 -0.924616 -0.145852 
0.352461 1.014310 -0.166781 
0.819572 0.225035 -0.086551 
0.831654 0.183491 -0.086696 
-0.144995 0.795196 -0.082650 
0.945994 -0.641657 -0.142683 
0.214691 1.159230 0.069756 
0.387495 1.111610 0.072360 
-0.397555 0.989051 -0.169569 
-1.001400 -0.249104 -0.174891 
-0.791220 0.704913 -0.171475 
-0.709843 -0.387368 -0.082077 
-0.689494 -0.423191 -0.082400 
-0.824858 0.662614 -0.171843 
-0.337331 -0.879909 0.171086 
0.699121 0.935568 0.081390 
0.556126 -0.982179 -0.147990 
-0.432769 -0.691588 -0.084818 
-0.464189 -0.948881 -0.170144 
-0.628420 0.503849 -0.076927 
-0.759305 0.250540 -0.077594 
-0.602480 1.024240 0.069655 
-0.259099 0.898967 0.179377 
-0.393724 0.849970 0.180144 
-0.953161 0.161634 0.180137 
-0.971503 -0.084136 0.178612 
-0.418044 -1.100740 0.064557 
0.597981 -0.629578 0.174599 
0.344985 -0.815053 0.173629 
0.423914 -0.770708 0.174215 
0.130461 -0.895029 0.171976 
0.229175 -1.128600 0.086789 
0.851719 -0.123862 0.173527 
0.853923 0.141269 0.173310 
0.862001 0.009016 0.173434 
0.023860 0.929999 0.177254 
0.118222 0.919224 0.176568 
1.121890 0.184649 0.098070 
1.128310 0.126875 0.098483 
0.265789 0.772049 -0.087055 
0.143123 0.798910 -0.086212 
0.899574 0.650569 -0.157007 
1.101330 0.244911 -0.150422 
1.032220 -0.490285 -0.142995 
0.853930 -0.077749 -0.088261 
0.849540 -0.121462 -0.088513 
0.911291 -0.688568 -0.142777 
-0.820793 -0.629658 -0.173806 
-0.499973 -0.641736 -0.084457 
-0.360970 -0.734875 -0.084965 
-0.124528 -0.821349 -0.084111 
-0.040677 -0.831308 -0.083922 
-0.206791 -0.801766 -0.084426 
-0.317100 -1.020010 -0.167878 
-0.416480 -0.974423 -0.169447 
-0.367403 -0.998220 -0.168688 
-0.555691 -0.891182 -0.171316 
-0.598683 -0.858749 -0.171774 
-0.561560 -0.585617 -0.083948 
-0.617442 -0.524020 -0.083350 
[...]
CELL_DATA 7380
SCALARS u float 1
LOOKUP_TABLE default
4.233577
4.557274
4.717164
5.038794
4.180683
4.641588
-3.475294
-3.806657
-3.837676
-4.424983
-4.070973
-4.426927
-2.073946
-1.899584
-2.573605
-2.775812
-1.671970
-2.362405
9.126966
8.887980
8.358679
8.577779
9.372618
8.831253
-9.441183
-9.509110
-9.359954
-9.287397
-8.890545
-8.744451
-7.771028
-7.156380
-6.854619
-7.446600
-7.483264
-7.152486
-13.041686
-13.733682
-13.270748
-13.675631
-12.986984
-13.225089
-11.567972
-11.031785
-10.662635
-11.179126
-11.006687
-10.621420
-4.971036
-5.317169
-5.480158
-5.718167
-5.353102
-5.871227
-9.308054
-9.860960
-9.571375
-10.300268
-9.727906
-9.983157
-6.077102
-6.482258
-6.613987
-6.839474
-6.420175
-6.963641
5.705708
5.209918
4.858494
5.343035
5.442679
5.102189
-0.227635
0.183259
-0.431576
-0.837300
0.010737
-0.631581
8.330529
8.855194
8.900101
8.379448
8.254690
8.298437
-8.109064
-8.617647
-8.694278
-8.850429
-8.333600
-8.918256
2.823629
3.166139
2.488732
2.158610
2.822282
2.131701
5.423861
5.828964
5.180030
4.790009
5.527062
4.869408
-13.758226
-13.290973
-13.070593
0.256100
-0.092164
0.202143
-0.636162
-0.294570
-0.320803
-8.220022
-7.922884
-8.405833
-8.692987
-8.424199
-8.925948
-5.931900
-6.282568
-6.686776
-6.306212
-6.497479
-6.888892
-9.273184
-9.831021
-9.371101
-9.331674
-8.776116
-8.893307
-12.112630
-11.820336
-11.507027
-11.776672
-11.189994
-11.510847
-6.489869
-6.176410
-5.581218
-5.868521
-5.977663
-5.364984
-4.700169
-4.263548
-3.838821
-4.244605
-4.364612
-3.907889
-0.819208
-0.612448
-0.130875
-0.310538
-0.485126
0.024560
-0.676775
-0.647970
-0.152002
-0.213502
-1.057771
-0.574626
-6.745135
-6.194628
-5.835190
-6.367195
-6.434836
-6.052572
4.228350
3.771218
4.352541
4.827511
4.092202
4.670351
3.597094
3.417215
4.050258
4.259872
3.848355
4.491439
11.316245
11.050918
10.924758
11.181003
11.764482
11.633133
10.091596
9.913771
9.647027
9.801514
10.557568
10.267680
14.050556
13.494164
13.583381
14.123641
14.104515
14.191533
10.637932
10.336307
9.878214
10.161599
10.861763
10.396136
7.572912
8.091353
8.275089
7.753389
7.484679
7.671269
8.909919
8.292779
8.665902
9.292948
8.596179
8.972456
8.316433
8.922035
8.406049
10.359536
10.164087
10.827350
11.279309
10.547193
10.972019
11.142272
10.842910
10.415838
13.597114
13.437183
13.005379
13.195570
13.359472
12.774545
0.251994
0.344870
0.840350
0.715124
-0.089104
0.393435
-13.756626
-13.277123
-13.066005
-13.180940
-12.979119
-13.035051
-13.238252
-13.664945
-13.726515
-13.172528
-12.563675
-12.621296
-12.993685
-12.437892
-12.394118
-9.889792
-9.920893
-9.947883
-9.908584
-9.318832
-9.340242
-9.851718
-9.895564
-9.829468
-9.782830
-9.282901
-9.212954
-9.913722
-9.957428
-9.939560
-9.895130
-9.344207
-9.328470
-9.690243
-9.745349
-9.638947
-9.576072
-9.128077
-9.019352
-10.306348
-9.824276
-9.749613
-7.671823
-8.154938
-8.273569
-7.860924
-7.395345
-7.993739
-8.681560
-8.774852
-8.533662
-8.428602
-8.165693
-7.929105
-8.573487
-9.108533
-9.187852
-8.907170
-8.380536
-8.993399
-10.454564
-11.001844
-10.793191
-10.574423
-10.047190
-10.391737
-12.416060
-12.096261
-11.792230
-8.389259
-8.804196
-8.256079
-10.837993
-11.404897
-11.167155
-12.777328
-12.218753
-12.188734
-9.615712
-9.966991
-10.121326
-12.792166
-13.457148
-13.047381
-13.312608
-12.648263
-12.914021
-9.061715
-8.534203
-9.120181
-9.680249
-9.719570
-9.124761
-9.775493
-9.212328
-9.815340
-9.847955
-9.274844
-9.880431
-10.742254
-10.502236
-10.852098
-11.078208
-11.106778
-11.466928
-10.717054
-10.125263
-10.376257
-12.778605
-13.460122
-12.981964
-13.577900
-12.891900
-13.097264
-12.656157
-12.459804
-12.635478
-12.833844
-13.128143
-13.309243
-12.921171
-12.458674
-12.261033
-8.867132
-9.403464
-9.144034
-5.237766
-5.637153
-5.577059
-6.223555
-5.803214
-6.136464
-7.212152
-6.897139
-7.419871
-7.722996
-7.359365
-7.901206
-6.797841
-6.357145
-6.686041
0.980154
1.400897
0.794579
0.379418
1.280762
0.648910
-5.036612
-4.659878
-5.008084
7.274500
7.388212
6.819094
6.932229
6.833221
6.381772
1.999061
1.903818
1.572344
5.156506
4.737323
4.822851
4.220811
4.633088
4.331108
4.381780
4.827506
4.286672
3.841959
4.843797
4.281633
5.915667
6.364602
5.869357
5.421346
6.443957
5.929265
7.238252
7.685073
7.086530
6.650650
7.408828
6.800166
5.393597
5.355445
4.908021
4.488790
4.963709
4.744671
3.732904
3.290734
3.705677
4.520351
4.144179
4.198682
8.003112
7.807909
8.266818
2.158367
2.588761
2.516651
-3.243127
-2.872864
-3.181589
-1.446069
-1.046784
-1.657786
-2.048440
-1.274534
-1.911301
6.045127
6.466367
6.171914
7.919260
8.354190
7.782075
8.178938
7.759138
7.613520
4.107064
4.374615
3.996002
3.717621
4.571497
4.169734
6.076187
6.376862
5.868340
6.050596
5.767160
5.546410
3.753381
3.313269
2.897561
3.325199
3.605393
3.201656
-4.694257
-4.962374
-5.418129
-5.121613
-5.206341
-5.652333
2.476573
2.887800
2.787916
1.933693
1.984634
1.523698
1.499609
1.592730
1.148485
5.998985
6.461589
6.793048
6.311786
5.900738
6.224144
6.612295
7.100568
7.380739
6.886876
6.526608
6.798690
2.364455
2.440073
2.040361
2.469252
2.089648
1.545338
1.920294
2.289105
1.769254
0.615794
0.588129
0.116695
0.169235
0.242013
-0.214381
0.698676
1.059412
1.057604
-0.279479
-0.357031
-0.832459
-0.726999
-0.670777
-1.129839
-3.832875
-3.358779
-3.773673
-4.255963
-3.616417
-4.054154
-4.157448
-3.898412
-3.718006
-4.830865
-4.382176
-4.546407
-2.935348
-3.170432
-3.398823
-4.580867
-4.906109
-5.079297
-4.484269
-4.181666
-4.671290
-7.296493
-6.749164
-7.056849
-7.608265
-7.179483
-7.505100
-8.100862
-8.035593
-8.576407
-8.626179
-8.521838
-9.067272
-6.759682
-6.400786
-6.288829
-7.365190
-6.888628
-6.984778
-7.470281
-7.552561
-7.951516
-5.858039
-6.083649
-5.536572
4.102412
3.697127
3.169108
3.563418
3.827213
3.317859
-0.545356
-0.284469
-0.980017
-1.223929
-0.671297
-1.373239
0.033401
0.135521
0.417296
0.735979
0.815718
1.113111
8.795093
8.690520
8.328525
8.411199
9.251397
8.865452
8.008049
7.949528
7.550838
7.587800
8.465262
8.043478
7.149604
7.599252
7.133652
5.737957
5.780172
5.306523
5.243581
6.172576
5.670731
-2.459696
-2.758881
-3.270531
-2.981782
-2.348608
-2.839327
-1.851025
-1.927357
-2.239396
-0.844637
-1.175351
-0.835141
-1.710075
-1.386131
-1.343982
-7.307594
-7.766984
-8.080250
-7.597076
-7.933085
-8.232936
-8.513007
-8.368636
-7.865125
-7.072537
-7.258787
-7.608564
-7.433555
-6.665132
-6.999057
-8.921143
-9.465235
-9.426189
-8.891910
-9.626535
-9.596614
-9.249364
-9.447495
-9.327287
-9.118561
-8.745916
-8.627993
-8.620909
-8.761718
-8.976380
-8.838117
-8.104049
-8.309935
-9.177120
-9.314086
-9.437041
-9.298681
-8.633430
-8.753193
-9.530978
-9.393093
-8.840057
-6.535570
-7.104899
-6.803564
-13.353075
-12.740404
-12.821500
-13.435064
-12.896689
-12.821627
-9.024819
-9.161511
-8.485837
-13.475935
-12.933084
-12.863792
-13.488988
-12.942114
-12.869957
-13.469995
-12.926367
-12.849038
-12.871455
-12.287906
-12.356889
-13.062498
-12.547116
-12.471735
-12.125444
-12.644044
-12.066409
-13.223695
-12.623787
-12.702145
-11.805630
-11.860533
-12.369939
-12.066153
-11.512630
-11.562802
-10.827454
-10.850475
-11.224122
-11.186936
-11.359579
-11.732534
-10.959401
-10.439840
-10.446379
-3.402787
-2.933622
-3.080034
-2.947950
-2.605727
-2.492281
-11.369540
-11.360227
-11.924108
-8.962315
-8.486751
-9.179003
-11.949955
-11.968665
-11.682334
-11.676973
-12.529955
-12.246559
-5.971539
-5.654971
-5.463867
-8.071125
-7.441067
-7.796902
-9.536129
-9.353136
-8.835773
-8.777056
-9.007467
-8.321343
-8.811057
-8.567760
-8.135454
-5.238568
-5.561526
-5.138692
-4.805312
-5.079757
-4.678420
2.290084
2.574662
3.078299
2.770616
2.245894
2.751317
-3.850589
-3.367901
-3.545939
-1.986659
-2.324016
-1.827543
-1.485775
-2.035195
-1.565018
0.201012
0.534521
0.352803
-2.812303
-3.260682
-3.101553
-2.582886
-2.153102
-2.458392
-3.403733
-3.774436
-3.434622
-2.959532
-3.296725
-2.814272
-2.478042
-2.956067
-2.498821
-5.230723
-4.974995
-4.360258
-4.582556
-4.739316
-4.103339
-3.461182
-3.926034
-3.735640
-7.111609
-7.485655
-6.897461
-6.552703
-7.488462
-6.929621
-1.810299
-1.898990
-1.490296
-5.769682
-6.119738
-5.724116
-5.398299
-6.328275
-5.949037
2.921984
2.775323
3.192525
4.674819
4.912634
5.126022
7.559927
7.406903
7.057722
8.116696
7.611601
7.983706
5.975399
6.427051
6.862345
6.391968
6.107535
6.544719
9.077328
8.666993
9.165501
9.591062
9.183885
9.692267
10.564409
10.103770
10.535733
11.009981
10.638032
11.080007
-0.827829
-1.213761
-1.157464
-0.525623
-0.158484
-0.498635
0.160007
0.164069
0.513419
2.238033
2.127153
2.532137
1.865588
1.550024
1.475519
3.246792
3.577132
4.072643
3.717126
3.251003
3.746116
5.518322
5.100518
5.194546
6.968964
7.284408
6.791233
2.082972
2.296933
2.766469
2.522524
1.814174
2.271891
11.139422
10.785053
10.973825
11.337290
10.466214
10.654477
10.685830
10.341850
10.574458
10.922177
10.031606
10.257239
7.757454
7.210232
6.977084
7.517437
7.371217
7.148987
6.727281
7.260495
6.909728
11.983616
11.571446
11.578804
11.996404
11.261006
11.270993
11.553635
11.981176
11.252492
11.213041
11.501351
11.936936
11.147608
11.864963
11.422932
11.070872
10.606373
10.396034
13.975103
13.495373
13.366982
13.833899
14.092907
13.961647
13.639315
14.169368
14.246749
11.538102
11.223469
11.944698
14.263600
14.176190
13.659187
14.144666
14.243224
13.642357
8.409075
8.919335
8.313009
8.890677
8.391697
8.291790
14.078788
14.187777
13.586998
13.935280
13.373259
13.984373
9.488247
9.683099
9.035838
9.350589
9.175494
8.714921
10.503521
10.781011
10.065633
10.547982
10.288915
9.848296
8.015123
8.473937
8.092287
7.631040
8.623469
8.230401
13.378978
12.829242
13.041002
13.599555
13.436102
13.649792
-6.691238
-6.123614
-6.499469
8.440075
7.912679
7.838275
11.895642
11.830793
11.334196
12.262704
11.692963
12.205221
13.778605
13.220698
13.831068
12.916558
12.862778
12.324324
13.191818
12.590082
13.130823
8.050739
8.581788
8.695387
8.166257
7.982576
8.101781
7.369603
7.879216
7.283476
9.884114
10.208209
10.441266
10.107385
10.560806
10.800580
8.787015
8.261898
8.189703
8.343404
8.833290
8.243737
8.748418
8.267923
8.163181
8.055439
8.508331
7.931146
10.974838
10.686494
10.252950
11.380335
10.645851
11.063772
10.280100
10.045922
9.602168
8.835389
8.376383
8.996599
7.817447
7.692498
7.232420
12.271837
11.900970
12.471859
11.903358
12.112306
11.549912
5.423655
4.927663
5.487026
6.002719
5.238840
5.792530
8.506830
7.903352
8.195819
9.982709
9.333817
9.626425
10.287589
9.656680
9.946793
11.009970
10.304285
10.469023
11.186210
10.647551
10.820369
10.589356
10.952359
11.050768
10.676346
11.316698
11.408739
1.688633
1.315426
1.945692
2.345530
1.649812
2.277794
3.499153
3.612704
3.172559
6.550533
6.018629
6.524577
7.077130
6.320575
6.822985
1.636305
1.817697
1.347811
8.149351
8.540124
8.652354
-1.136324
-1.142361
-1.537214
1.177272
1.330741
0.872388
3.378546
3.679103
4.117176
3.790703
3.163567
3.592176
5.321847
5.736775
6.107772
5.669806
5.192357
5.557872
-9.640455
-9.160755
-9.518159
-5.977003
-6.292685
-5.664830
-5.383250
-6.351663
-5.756291
-8.682208
-9.135821
-9.041959
-8.609611
-8.178376
-8.545167
-4.377697
-4.520871
-3.882101
-3.715612
-4.152043
-3.521358
-7.653399
-8.058294
-8.027963
-6.789117
-7.212010
-6.863164
-6.464090
-7.369709
-7.036565
-7.100021
-7.545353
-7.691677
-3.792519
-4.004621
-4.291053
-4.723435
-4.210119
-4.453803
-1.280824
-0.937437
-0.286337
-0.625189
-1.002335
-0.322649
-1.685664
-1.937029
-1.588801
7.561633
8.090147
8.471271
7.922133
7.778147
8.157531
6.649681
6.983680
6.458964
6.688640
6.371034
6.173014
5.290348
5.555888
5.754486
7.008132
7.302137
7.760909
7.474099
7.586501
8.066324
-13.410548
-12.868239
-12.792558
-2.883290
-3.237742
-3.045270
9.777609
9.993431
9.333359
7.139091
7.639195
7.052730
1.021718
0.674550
1.009514
11.505739
11.725032
11.169369
13.096452
12.923486
12.514335
12.614629
12.803266
12.223023
3.167211
2.731654
3.117513
-11.808710
-11.407002
-11.184478
-12.130202
-11.493995
-11.719464
-2.547016
-2.265819
-2.645191
-8.871417
-9.416761
-9.468491
-9.560233
-9.010604
-9.604483
-8.336281
-8.591042
-7.928703
-8.343892
-8.080568
-7.698493
-5.145840
-4.774012
-5.024715
-13.124806
-12.473001
-12.752552
-1.591649
-1.174325
-1.624011
-2.051995
-1.307552
-1.780184
3.845645
3.487401
3.514415
7.137333
6.693398
6.695599
6.221727
6.661906
6.242415
-4.744326
-4.250672
-4.487808
0.715851
0.839769
1.324950
1.228964
1.047447
1.560595
-1.090735
-1.325596
-0.985263
-6.576123
-7.095118
-6.757189
7.695332
7.185142
7.381902
8.937842
9.537688
9.852551
9.238106
9.209742
9.522138
8.525531
8.844311
8.279568
9.155625
9.035169
9.616031
9.489558
9.954378
9.354887
11.434130
10.947621
11.499989
7.575466
7.980929
7.423463
11.467700
11.117328
10.734873
9.652586
9.014675
9.331796
2.562530
2.892326
2.984170
4.810652
4.955969
5.352735
4.419121
4.581418
4.956253
0.363345
0.351230
0.027118
-12.337954
-12.042558
-12.676989
-12.905874
-12.267774
-12.555787
-13.153846
-12.905995
-13.579358
-7.813634
-7.347079
-7.905170
-7.619420
-8.186544
-8.101460
-7.872945
-8.450124
-8.369282
-8.709107
-9.304204
-9.250467
-12.421977
-11.775517
-11.992411
-12.238473
-12.034898
-12.686944
-2.249226
-2.508220
-2.956977
-2.714029
-2.069154
-2.504741
-6.108252
-5.723441
-6.250459
-9.088493
-9.122318
-9.582060
-6.132952
-5.799652
-5.669274
-5.180276
-5.033229
-5.490200
-3.472082
-3.240118
-3.044381
9.898659
9.393709
9.656244
1.436053
1.802344
1.490735
1.371057
1.251134
1.001162
0.810062
0.454909
0.726685
3.021249
2.808464
2.633618
-3.496333
-3.322101
-3.774838
-4.266608
-3.997801
-3.792553
-9.447377
-8.894204
-9.590838
-9.469716
-9.622751
-8.923116
-12.696228
-12.763397
-13.311716
-10.067863
-9.588189
-9.568690
-10.527684
-10.017938
-10.026757
-10.256766
-10.756840
-10.200993
-7.156694
-7.685104
-7.318918
-8.252362
-7.862505
-7.715260
6.807660
6.485571
6.974296
6.189418
5.894760
6.370435
10.173407
9.647200
10.091253
0.857399
1.188567
0.819275
1.737636
2.067001
1.808209
5.979718
5.543031
5.657159
9.201493
8.620510
8.877550
9.519906
10.147556
10.426686
9.784821
9.814940
10.088449
11.138819
10.816643
10.954377
11.276538
11.509188
11.654331
11.390818
11.776522
11.069016
11.160308
11.480418
11.875387
11.015931
11.471100
10.772901
10.824513
11.284186
10.598233
13.203002
13.653010
13.798385
11.308454
10.764981
11.085209
12.023902
12.553288
12.604603
8.639633
8.173118
8.059181
11.119817
11.447010
10.714750
10.748838
11.147941
11.483136
10.755513
11.148084
11.490315
2.723468
3.227685
2.956518
4.013376
4.543300
4.193626
-5.554089
-5.313696
-5.011890
-4.889986
-4.617025
-5.144284
-2.485065
-2.123948
-2.046772
-1.593898
-1.634944
-2.012460
-2.590183
-2.368150
-2.237606
-0.730119
-0.296400
0.151993
-0.281280
13.168836
13.391023
-9.738421
-10.295382
-10.621930
-10.055138
13.857747
13.981184
-8.686594
-8.753936
12.779366
12.990511
7.704839
7.343415
12.121421
11.918366
-14.143858
-14.204637
-14.230584
-14.162632
8.191776
8.624554
9.075450
8.615973
7.756366
8.163326
-13.598725
-13.875714
-13.711401
-13.428870
4.065398
4.592808
4.188454
3.664209
-6.731638
-7.288635
-7.733067
-7.156792
1.001319
0.305199
4.740575
4.311874
3.772923
-7.822886
-8.016326
-7.402843
-7.147453
-10.049995
-9.654198
-10.036379
-9.864600
-13.507755
-13.622774
-13.403828
-13.273309
9.590815
10.312201
10.184834
9.461603
5.739125
6.338972
5.959307
5.368153
-8.981298
-8.338242
-8.003908
-8.634286
-7.985346
-8.032059
-7.866471
-7.834640
8.595758
9.051901
-4.316532
-4.833244
-2.839754
-3.290851
-1.035880
-0.500376
-1.799541
-2.501705
8.428536
8.979537
9.157810
8.597166
-4.959695
-5.344233
9.021043
-2.241704
-1.795621
3.117004
2.531106
-0.846999
-1.278183
-1.963140
-1.543989
-5.977115
-6.177735
-6.781076
-6.605534
-4.319869
-4.870383
0.038289
0.506351
-10.258909
-10.944101
-11.239172
-10.548796
8.417784
8.287459
-9.195386
-8.933261
14.074373
10.913256
10.459479
2.773002
2.970214
2.439257
2.270970
1.159523
1.304210
1.864854
1.686606
-13.038839
-13.262894
3.407494
4.050487
-12.176876
-12.252011
2.107949
1.439101
-11.231076
-11.372065
-11.778661
-11.649948
6.665141
7.171502
7.483944
6.974213
5.941241
6.398515
-5.334741
-10.780066
-10.314793
6.283773
6.841585
7.255582
6.675404
1.490351
1.000026
-11.446315
-12.071440
-11.868252
-11.252820
-11.609428
-12.247538
12.709015
13.336986
13.308576
12.687591
9.679007
10.364458
10.449196
9.754185
-1.745968
-2.020067
-1.416808
-1.177165
-7.005479
-7.425935
-7.892302
-7.445377
-7.474246
-7.259902
-7.031335
-7.255556
2.416746
2.204543
11.255496
10.890969
11.279162
11.650774
10.419312
10.798463
2.744303
2.696749
2.222553
2.301076
9.217366
8.958651
13.599778
13.886629
13.733352
13.460127
2.958428
2.709979
-13.967261
-13.873181
-13.731320
-13.811968
6.168756
6.372246
6.926688
6.695340
-1.949388
-2.614033
-2.308181
-1.605813
-10.854162
-10.197958
-10.409920
-11.074248
-10.614985
-9.965499
-10.934370
-12.585772
-12.252331
14.010265
1.577189
2.166764
-8.354750
-8.265403
-8.326657
-8.420639
-7.528022
-8.162912
-7.660132
-7.053379
-11.033419
-10.362511
-10.129843
-10.790894
-12.300111
-12.273324
-4.147980
-3.929127
-3.523508
-3.762884
-11.379450
-11.088643
-8.687588
-8.599747
10.010216
9.476972
9.873635
12.560635
12.038333
11.703969
12.237866
-4.488484
-4.929048
-4.365331
-3.959057
9.202546
9.831105
9.804001
9.169336
-3.240385
-3.784116
3.287844
3.816976
-10.912876
-10.229610
-10.347741
-11.038546
-10.767159
-10.092830
-11.571818
-12.294023
-11.575020
6.996689
6.384026
-11.481532
-11.050696
12.224513
12.718325
12.957324
12.459648
-11.222946
-11.475070
10.504627
10.536786
-6.780270
-7.015731
3.483475
3.205184
-14.080281
-14.106195
8.682306
9.182532
9.076171
8.584478
5.218221
5.578040
-6.530209
-6.118923
-5.191703
-5.599090
-6.079357
-5.645940
-5.818102
-10.485091
-10.925156
4.890646
5.377290
5.762311
5.270171
-1.376938
-0.866307
7.597156
7.808482
-2.939433
-3.634514
-3.206359
-10.463042
-10.596578
-10.119584
-9.966020
2.281066
2.254231
2.865474
2.855486
4.342898
4.544518
5.094885
4.861059
1.971654
2.475821
2.028147
1.531187
-3.838078
-4.290836
2.136952
2.612406
12.358961
11.981577
12.277705
12.663123
-7.678657
0.185172
-0.398251
1.239931
1.343435
0.784423
0.713800
-0.355460
-0.448958
0.087879
0.152231
12.840090
-0.200771
-0.469593
0.178594
0.415206
-0.811883
-1.109471
2.825517
3.278818
3.712402
3.254209
1.971697
2.389661
2.409244
10.484268
10.795064
5.861893
-11.006681
-10.691132
-12.609492
-12.669784
-6.934611
-6.481901
3.605970
3.181282
-4.436923
-4.206503
-3.684234
-3.876434
3.972633
3.595489
4.267592
4.641031
8.421235
8.523722
9.757766
10.476117
10.411545
9.691976
7.558415
8.106519
7.874950
7.326497
7.770484
8.314671
-3.915970
-4.549261
7.403561
6.963512
7.544524
7.979720
-6.549132
-6.170422
-5.698285
-6.041696
-5.408503
-5.932137
-6.445608
13.234748
13.735805
13.799856
13.298321
-7.859991
-7.767317
-7.926741
-8.022457
8.238418
8.322741
6.808392
6.368337
0.761005
0.074576
8.254107
8.910231
9.147598
8.481283
-13.759876
-13.845995
1.575695
2.046108
1.577995
1.119781
-4.896222
-4.715983
-4.328203
-4.525698
2.955643
2.321738
13.855206
13.382687
13.293348
13.776064
-0.603534
-10.318858
-11.041825
-10.907609
-10.187603
-3.730012
5.940256
5.572378
6.198628
6.566357
8.033948
7.880178
12.499242
12.799512
0.978199
-10.344141
3.323631
3.879365
-13.006500
-13.161108
-12.879846
-12.703817
-3.372325
-2.884760
-3.156095
-8.509005
-8.980742
-7.191605
-7.553915
-8.140133
-7.788786
1.400161
2.082145
-2.067394
-1.367650
-0.026423
1.075927
1.501170
1.946854
1.524341
-2.125678
-2.689736
10.040336
9.873222
13.175161
12.568925
12.406075
13.015353
-4.115551
-4.490804
-3.809202
-3.426944
-5.213936
-5.520548
-0.987189
-1.651072
7.971557
7.478714
-10.565076
-10.505097
-10.051320
-10.797779
-10.550171
-9.815369
-0.687685
-0.290541
-0.754046
-1.130029
-6.283888
-14.219794
-14.143943
-8.142103
-8.007961
-7.664329
-7.852296
-9.996760
-10.480973
-7.852969
-7.638630
3.673582
4.138411
4.557775
4.085218
-12.524087
7.239793
6.637188
-6.332126
-6.898511
-7.407127
-6.822445
-4.242687
-4.154037
-4.565926
-4.631267
8.711489
8.433806
-0.703285
-0.239553
-1.147724
2.973468
3.441400
2.961271
2.512980
4.184757
4.623140
10.829542
10.472891
-1.176715
7.634568
-1.584318
-2.015992
13.243666
13.713556
13.144815
8.454317
8.442077
-9.427528
1.523186
1.115026
1.809853