# vtk DataFile Version 2.0
Unstructured Grid Example
ASCII
DATASET UNSTRUCTURED_GRID
POINTS 2067 float
-0.060875 0.014811 -0.392313 
-0.058944 -0.016819 0.388066 
-0.045592 -0.257085 -0.041570 
-0.043164 0.258556 0.040457 
0.046303 -0.256070 -0.042470 
0.051208 0.255116 0.038724 
0.066366 0.013461 -0.389102 
0.069143 -0.018814 0.381064 
0.092598 0.016591 -0.441494 
-0.082800 -0.020535 0.442425 
-0.060203 -0.288849 -0.043679 
0.067806 0.286454 0.040304 
-0.055870 0.289375 0.043086 
0.096155 -0.022958 0.431464 
0.060827 -0.286403 -0.044453 
-0.086961 0.018051 -0.446989 
-0.068961 0.063412 -0.341754 
0.076010 -0.177412 0.163128 
-0.065020 0.036189 -0.370988 
-0.074934 -0.105421 -0.289045 
-0.071549 0.177403 -0.167449 
0.073423 0.191548 -0.131091 
0.077182 0.136573 -0.239750 
-0.050389 -0.248366 -0.059782 
0.079011 0.039950 0.339397 
-0.067101 0.042772 0.345510 
-0.069963 -0.178829 -0.185578 
-0.066152 -0.198980 -0.150697 
-0.061333 -0.217235 -0.117354 
-0.051703 -0.270041 -0.042259 
-0.055846 -0.233872 -0.086534 
-0.025665 -0.258571 -0.041606 
0.026394 -0.257974 -0.042109 
-0.074370 -0.132217 -0.255503 
0.074498 -0.075040 -0.316387 
-0.070700 -0.044315 -0.348286 
-0.033132 0.014454 -0.393297 
-0.069051 0.193588 -0.130743 
-0.073879 0.138700 -0.240660 
-0.065729 0.208077 -0.094974 
-0.061522 0.221213 -0.060646 
-0.068907 0.156542 0.220217 
-0.066079 0.178817 0.185232 
-0.052858 0.234400 0.086211 
-0.067772 -0.018337 0.410193 
-0.046455 0.252608 0.023137 
0.082133 0.100211 0.281341 
-0.070860 0.104247 0.287085 
-0.069613 0.074228 0.317288 
-0.070600 -0.091603 0.306485 
-0.058793 -0.232929 0.027021 
-0.070178 -0.194613 0.129306 
0.078215 -0.159565 0.199534 
-0.066966 -0.065302 0.337860 
0.072942 -0.039207 0.361211 
0.040333 -0.018578 0.387207 
0.005313 -0.018285 0.391240 
0.080062 -0.020309 0.401069 
0.079770 -0.139752 0.235623 
0.081157 0.127391 0.248738 
0.073106 -0.193261 0.126835 
0.060560 -0.231778 0.025657 
0.050510 -0.251459 -0.027425 
0.074003 0.007660 0.362854 
0.058075 0.267846 0.039204 
0.059395 0.241070 -0.000941 
0.056442 0.245766 0.057420 
0.030876 0.258009 0.039048 
0.061923 0.231325 0.083491 
0.072649 0.196357 0.147085 
0.067484 0.214665 0.113942 
0.079420 0.152860 0.215370 
0.067588 0.218585 -0.061542 
0.063786 0.230350 -0.029585 
0.072100 0.061272 -0.339396 
0.075172 -0.104058 -0.285535 
0.068316 0.034430 -0.368051 
0.035416 0.013864 -0.391578 
0.068834 -0.012918 -0.370147 
0.072408 -0.044284 -0.344903 
0.072782 -0.155548 -0.218763 
0.051293 -0.247488 -0.059929 
-0.072847 -0.116497 0.273207 
0.069555 -0.207428 0.091411 
0.075055 0.088260 -0.308077 
-0.051251 0.243854 -0.000040 
0.055455 -0.242370 -0.003379 
-0.071986 0.016027 -0.415262 
0.074579 0.014567 -0.407479 
0.055103 0.250211 0.022744 
-0.047732 0.270715 0.041495 
-0.072650 -0.156573 -0.220744 
-0.056557 0.233145 -0.028687 
-0.047455 0.248659 0.059548 
-0.062072 -0.038533 0.366516 
0.079931 -0.093322 0.304152 
0.080532 -0.117781 0.270766 
0.061858 -0.216582 -0.116942 
-0.049491 -0.252474 -0.025820 
-0.073815 -0.075986 -0.320100 
-0.065918 -0.012048 -0.373338 
-0.071812 0.090312 -0.309754 
-0.073444 0.115636 -0.275901 
-0.073206 0.159253 -0.204331 
-0.062405 0.199183 0.150655 
-0.057961 0.217721 0.117310 
-0.021634 0.259564 0.040150 
-0.070629 0.131825 0.254619 
-0.062653 0.010386 0.370313 
-0.067129 -0.208621 0.093380 
-0.063302 -0.221311 0.059068 
-0.054003 -0.243476 -0.001836 
-0.072592 -0.179178 0.166262 
-0.073985 -0.161138 0.203085 
-0.073981 -0.139863 0.238688 
-0.029451 -0.017602 0.390921 
0.076929 -0.066158 0.334052 
0.065328 -0.220212 0.057416 
0.082201 0.071709 0.312655 
0.004614 0.259332 0.039643 
0.076756 0.176081 0.181394 
0.076778 0.113679 -0.274785 
0.070779 0.205780 -0.095573 
0.076635 0.157045 -0.203742 
0.075384 0.175353 -0.167387 
0.001037 0.014221 -0.393159 
0.000565 -0.258488 -0.041874 
0.074558 -0.130986 -0.252767 
0.052204 -0.268148 -0.043094 
0.056744 -0.233138 -0.086346 
0.066311 -0.198194 -0.149900 
0.069985 -0.177903 -0.184154 
-0.176852 0.098340 -0.207631 
-0.198718 0.071096 -0.067595 
-0.054483 0.098264 0.433081 
-0.057733 0.142520 0.401377 
0.146661 0.188237 0.175282 
0.068795 0.192878 -0.336734 
0.121837 0.154717 -0.308260 
-0.172384 0.144678 -0.130873 
-0.127510 0.233841 -0.047252 
-0.124896 0.237649 0.047129 
-0.136283 0.218859 -0.083673 
-0.062428 -0.223200 0.294996 
0.001411 -0.292335 0.126817 
-0.112172 -0.202393 -0.250246 
0.178288 -0.150362 0.021717 
-0.149997 -0.031943 -0.358019 
0.206138 -0.012099 0.067764 
0.165445 0.004792 -0.314711 
-0.088765 0.270638 0.046364 
0.002238 0.233060 -0.304788 
0.171585 0.166906 0.008629 
0.004681 -0.210149 0.345963 
0.191301 0.069618 0.176998 
0.101358 0.261703 -0.072153 
0.193635 -0.085334 0.132771 
-0.102331 0.227807 0.212084 
-0.156926 -0.191406 -0.046378 
-0.176075 0.035370 0.288829 
-0.112004 -0.096411 0.384746 
-0.175410 0.122858 -0.169249 
-0.060498 -0.232794 -0.276467 
0.198512 0.067438 -0.068603 
-0.155042 0.113824 -0.277573 
-0.198565 0.020417 -0.142602 
-0.201400 -0.046246 0.104663 
-0.168147 -0.165133 0.092187 
-0.144873 -0.202699 0.120613 
-0.162770 -0.162177 -0.147426 
-0.152534 -0.137344 -0.253466 
0.194612 -0.078149 -0.112533 
0.194160 0.035586 0.210799 
-0.185655 0.106373 0.148869 
0.065000 0.250368 0.230869 
0.042100 -0.287488 -0.113475 
0.007629 0.286630 0.154163 
-0.061497 0.195476 -0.338765 
0.061908 0.266431 0.187760 
-0.115451 0.206246 -0.229337 
-0.154689 -0.105792 -0.289667 
0.069422 0.229368 0.272975 
0.172806 -0.034806 -0.283183 
0.182234 0.067790 0.247118 
-0.173492 -0.145212 0.130011 
0.064892 -0.102227 -0.434248 
-0.192572 -0.084347 0.136820 
-0.060567 -0.103590 -0.437670 
-0.149140 0.032227 0.358534 
-0.047036 0.019337 -0.471417 
-0.101033 -0.058666 0.416094 
-0.115874 0.129416 -0.349242 
-0.156886 -0.140768 0.238348 
-0.077539 -0.281033 0.003544 
-0.144139 0.202159 -0.121617 
0.200532 -0.072202 0.063508 
-0.155018 -0.070720 -0.325143 
0.181902 0.131719 0.108815 
0.155668 0.108723 -0.274303 
0.169670 -0.165277 0.088621 
0.182032 0.031280 0.280382 
-0.055763 -0.050544 -0.462684 
-0.105793 -0.029530 -0.427149 
-0.189202 -0.107589 0.098937 
-0.194629 -0.007819 -0.180003 
0.137375 0.211573 0.139269 
-0.195318 -0.094287 0.028891 
0.196510 -0.095399 0.026519 
-0.202663 0.060096 0.003518 
0.002260 -0.156292 -0.414066 
-0.148210 -0.165230 -0.216405 
0.076731 0.283103 0.018902 
-0.063341 -0.209087 -0.319941 
0.039069 0.295812 0.044335 
0.000860 -0.263700 -0.241627 
0.181896 -0.042203 0.276223 
0.195874 0.090680 -0.031691 
0.002284 -0.235567 0.302256 
0.153578 -0.188306 -0.112843 
0.186126 -0.038944 -0.215036 
-0.206822 0.000035 -0.000569 
0.199532 0.005708 0.174382 
-0.168156 0.172504 0.011441 
-0.108483 -0.241084 0.145572 
0.001191 -0.271864 0.212837 
0.201733 -0.017354 -0.109616 
0.189388 -0.110395 -0.079055 
0.178314 -0.134917 -0.113550 
0.066336 0.240301 -0.252554 
0.068054 -0.196941 0.333785 
-0.168538 -0.170533 -0.012136 
0.202396 -0.021662 0.137745 
0.150973 -0.031087 -0.351450 
-0.180007 -0.098303 0.207202 
-0.190608 0.058685 -0.175459 
0.174840 -0.145629 0.126056 
0.183414 0.136742 0.040812 
-0.062926 -0.145480 -0.402313 
0.009236 -0.019334 0.470645 
-0.116905 -0.209454 0.228790 
0.183482 -0.072101 0.238765 
0.000965 -0.298722 -0.081456 
0.142183 -0.212279 -0.079751 
0.055602 0.276710 0.146367 
0.049646 0.286750 0.109165 
0.180876 -0.141040 -0.045711 
0.063479 0.269337 -0.166416 
0.002961 -0.112121 -0.449190 
0.008385 0.050168 0.465987 
0.052924 -0.287844 0.081668 
0.202006 -0.051689 -0.076368 
0.153989 0.079035 -0.310568 
-0.196481 -0.042741 -0.146143 
0.174030 -0.008806 0.311892 
0.067997 0.218594 -0.295283 
0.004955 0.300206 -0.053666 
-0.145699 0.169408 0.218465 
-0.000237 -0.221295 -0.330583 
0.063780 -0.209237 -0.319893 
-0.053493 -0.268301 -0.190681 
-0.036021 0.296632 -0.014941 
-0.118055 0.238932 0.108579 
0.199196 0.043515 -0.105522 
0.193551 -0.009201 -0.178918 
0.069331 -0.283747 -0.023004 
-0.057975 0.177403 0.361548 
-0.188260 0.000816 0.251236 
-0.106149 0.058702 -0.418016 
-0.042943 0.293761 -0.049106 
-0.199634 -0.070799 0.066654 
0.151747 -0.137288 -0.251664 
0.199150 0.081074 0.038020 
0.189914 -0.118018 -0.010029 
0.195639 -0.059961 0.170018 
0.069756 -0.165421 0.373094 
0.006253 -0.178147 0.386643 
0.185924 -0.129562 0.058162 
0.195087 -0.032156 0.206931 
-0.142417 -0.212594 -0.078580 
0.112820 -0.061234 0.406945 
-0.205645 -0.009868 0.071142 
-0.201425 -0.050223 -0.075242 
0.199868 0.040631 0.141018 
0.003436 0.254685 -0.260683 
0.002125 0.208004 -0.348034 
0.063982 -0.259432 0.205065 
0.000530 -0.278045 -0.197826 
0.123085 0.171308 0.284051 
0.048262 -0.292209 0.045276 
-0.205242 -0.035032 0.033336 
0.169011 -0.171112 -0.013669 
-0.161275 -0.183651 0.054871 
0.002283 -0.191312 -0.373081 
0.206446 0.022398 0.034428 
-0.104367 0.256422 0.075021 
0.111428 0.256235 0.015451 
-0.116481 -0.176250 -0.290386 
0.158850 0.184800 0.107948 
0.172920 0.160312 0.075175 
-0.086859 -0.274193 0.034432 
0.107964 -0.252101 -0.076450 
-0.187356 -0.037825 -0.216768 
-0.175302 -0.069890 -0.252633 
-0.184257 -0.000601 -0.249895 
-0.130509 0.217505 0.144074 
-0.169226 0.165367 0.079424 
0.007270 -0.138020 0.422906 
-0.201467 -0.020435 0.142204 
0.182312 -0.098915 0.201232 
0.106020 -0.223953 -0.208730 
0.176312 0.117258 -0.168457 
0.185017 0.124858 -0.063375 
-0.177951 -0.149568 0.024279 
0.115850 0.221752 -0.188129 
0.156696 -0.163349 0.193990 
0.106870 0.249807 -0.108560 
0.167409 0.158731 0.142702 
-0.160542 0.184822 -0.055585 
-0.112841 -0.226630 0.186753 
0.115245 -0.224454 0.182952 
0.187786 0.101808 0.143004 
0.173604 0.140049 -0.130929 
0.146908 0.209098 0.074829 
-0.153661 -0.187825 -0.112033 
0.007746 0.105688 0.442014 
-0.198223 0.084741 0.040902 
-0.203393 0.051220 0.074920 
0.146012 0.214904 0.011913 
-0.206291 0.025239 0.037189 
0.002732 0.020907 -0.481099 
0.000697 -0.244598 -0.286372 
0.123413 0.242344 -0.015878 
0.155218 0.197785 -0.022107 
0.132523 -0.214487 -0.143021 
-0.140926 -0.190952 -0.178950 
[...]
CELL_DATA 1760
SCALARS u float 1
LOOKUP_TABLE default
-3.664806
-3.282091
-3.357427
-3.565986
2.451656
2.325839
2.772489
2.470769
-2.625238
-2.835968
-2.677228
-2.828868
1.965953
2.029209
2.070896
2.230737
-2.041642
-2.005764
-2.190890
-1.936610
2.831265
2.632129
2.843748
2.686066
-2.297352
-2.445377
-2.458942
-2.746356
3.603847
3.237792
3.310362
3.507450
2.988988
2.353039
2.571392
-2.874868
-3.062777
-3.070767
3.066635
2.889149
3.079718
2.372795
2.178374
2.032516
3.992419
3.588078
3.847608
-2.136868
-2.320784
-1.987471
-3.920943
-3.640143
-4.077628
-2.883143
-2.937644
-2.473150
-2.445660
-3.187897
-2.740788
0.124611
0.394113
0.848201
0.572403
0.192813
0.626936
-3.841650
-3.962573
-3.918462
-3.807436
-3.471760
-3.441376
-0.854395
-0.634905
-0.196778
-0.396702
-0.576490
-0.127598
0.707479
1.007277
1.397817
1.097995
0.843813
1.235826
-0.312072
-0.486911
-0.019770
0.150309
-0.587195
-0.137624
-2.970068
-2.994784
-2.716052
3.770199
3.897232
3.789167
3.665156
3.413999
3.333577
2.363147
2.517460
2.490896
2.342327
2.932507
2.877728
-3.691471
-3.265794
-3.136464
-3.528711
-3.609538
-3.464440
-2.994404
-3.351724
-3.303181
-2.849965
-3.172107
-3.134712
-2.480537
-2.416669
-2.662513
-2.256981
-2.433154
-2.200173
-3.824139
-3.726212
-3.369812
-2.506869
-2.893848
-2.899421
-2.504031
-2.323693
-2.325372
-3.377905
-3.721518
-3.816086
-3.449895
-3.846703
-3.942275
-3.024542
-3.091304
-3.465534
0.048738
0.305557
0.228562
-1.517113
-1.797506
-1.322655
-1.040891
-1.535958
-1.082071
0.482625
0.721619
0.637940
1.029448
0.900138
1.114906
2.758509
2.244374
2.304198
2.850983
2.380366
2.449162
2.297828
2.651162
2.171737
1.983230
2.059629
2.126544
2.033238
2.321158
2.425192
1.651086
1.738294
1.801870
3.408435
3.769913
3.801167
3.437451
3.887237
3.925587
2.345441
2.498228
2.520998
2.366103
2.915418
2.944966
0.964724
1.033829
1.511063
1.467110
0.776869
1.283130
-2.390799
-2.222824
-1.931768
-2.100668
-2.118588
-1.812018
-1.112218
-1.415485
-1.028803
-0.724118
-1.246598
-0.858717
1.070878
1.313837
1.033974
1.994985
1.979700
1.808710
2.908626
3.146944
2.844581
3.070756
2.995440
3.427226
3.138893
2.778577
2.725390
1.787084
1.507767
1.522261
3.345423
3.700499
3.806674
-0.304780
-0.047304
-0.228189
-1.387405
-1.462463
-1.102595
-1.021374
-1.276662
-0.888928
-1.632516
-1.783795
-1.724460
2.116082
2.385566
2.640015
2.394514
2.226207
2.481757
3.000471
2.970269
2.719849
2.683696
2.431066
2.500270
3.177516
3.131729
2.850837
3.299040
3.360103
3.536816
3.460183
2.993232
3.132028
3.596882
3.689616
3.252536
1.464892
1.759591
2.089691
1.804868
1.599115
1.930168
-1.804599
-1.979468
-1.471852
-1.294160
-2.004817
-1.527277
-2.869574
-2.476434
-2.307795
-2.736340
-3.143962
-2.780281
-2.845715
-2.484368
-2.306635
-2.424226
-2.805870
-2.710556
-2.351397
-2.265093
-2.201453
-2.276921
-1.948267
-2.033937
0.477221
0.568237
0.291875
-0.714928
-0.476064
-0.633589
-1.052152
-0.972661
-0.794076
1.399166
1.476712
1.291134
-2.915217
-2.264128
-2.528529
1.974995
1.987469
2.457712
2.418306
2.260287
2.718367
-2.487469
-2.056172
-1.993036
-2.376602
-2.176713
-2.095687
-2.474780
-2.640406
-2.391982
-1.996003
-1.993016
-2.273095
2.210225
2.539158
2.098829
2.469751
2.286066
2.222250
-1.604948
-1.475727
-1.774002
-0.313899
-0.440231
-0.614947
0.006929
-0.172970
0.117704
0.424646
0.591133
0.294632
-2.128524
-2.265845
-2.600041
-1.776677
-2.278704
-2.455152
-1.960007
-1.095931
-1.591086
-1.661400
-1.167338
3.926494
3.237540
3.152044
3.794922
3.958125
3.256651
3.887785
3.610308
3.741814
4.053552
-1.189298
-0.661002
-0.283254
-0.801317
-0.557149
-0.047779
-0.790207
-1.279048
-1.467767
-0.976298
0.867871
0.425722
0.173179
0.646626
1.574808
1.114048
1.022921
1.546157
-0.035585
-0.307070
0.279549
-0.225056
0.146954
0.664952
-1.183793
-1.553072
-1.173498
-0.778096
-4.197434
-4.350571
-4.181793
-4.057817
0.577516
0.071950
-0.019079
0.471065
-3.760637
-4.175449
-4.305865
-3.902428
2.130103
1.658444
1.632936
2.114967
-0.997168
-1.585260
-1.589280
-0.972199
1.675383
2.043451
-1.116526
-0.602541
-0.153686
2.673229
2.313211
2.408556
2.791392
1.207247
1.115844
1.655518
3.450570
3.030208
3.051275
3.496515
2.184756
1.865970
2.074288
2.393912
2.056557
1.566844
1.449015
1.943172
2.907872
2.224798
2.298426
3.039023
-2.816938
-3.163026
-3.016556
-2.697448
1.638403
0.963898
0.962137
1.626859
1.700039
1.097759
1.366712
1.957118
-4.209051
-4.034356
1.572863
1.120849
1.155684
1.620909
-1.995880
-2.504104
-2.780869
-2.078131
-2.562639
-2.614834
-2.142852
-0.707695
-1.196821
-1.166396
-0.689791
-1.553260
-1.961364
-1.867627
-1.471847
-1.736795
-1.347916
-3.401979
-3.762904
-3.625594
-3.292935
-3.934201
-4.293104
-3.869705
0.163709
-0.384187
-0.385620
0.157139
3.028786
3.495257
0.966061
0.379027
0.368275
0.970234
3.860178
4.061384
4.192997
3.999089
-2.836857
-3.036098
-2.575851
-2.447558
3.086960
3.290924
3.632099
3.394791
-1.643567
-2.105759
-1.588262
3.768944
-0.580592
-1.076395
-1.489158
-0.991861
-3.949552
-4.334600
4.221078
4.338837
-1.600205
-0.969099
3.908116
3.925453
-1.117826
-1.046313
-3.790770
-3.069526
-3.171483
-3.909927
-0.653243
-4.376885
-4.237686
-4.375719
-4.511125
2.403776
1.626750
2.367046
-3.346703
-3.894673
-2.628770
-3.010878
-0.101380
-0.588771
-0.466411
0.023089
-2.679352
-2.903113
-2.682450
-2.455739
-0.508607
1.142359
1.075307
3.269866
2.894658
2.976936
3.373839
-0.452079
0.060959
0.960198
0.301361
0.778476
3.421243
3.865698
-1.616103
-3.043569
-3.076897
3.689924
3.453139
-1.662127
-2.103694
-2.039795
0.641848
-0.661453
-1.204292
-0.699470
-3.925648
-4.394161
2.695512
2.902599
-4.472461
-4.333917
2.698174
2.928283
-3.609191
-3.427126
-3.827096
2.940836
2.770892
3.257512
2.001419
2.066595
0.598108
-0.950275
-1.532862
-1.509935
-0.964806
-0.395487
-0.968496
-0.387830
-1.690936
-1.689220
-1.211507
2.588299
2.544448
0.514400
0.014868
-0.083440
0.438924
-1.515129
-1.123891
-0.335691
-0.778102
-0.349509
0.109034
0.668968
0.156428
0.682291
-0.402130
0.127930
-0.951788
0.323911
0.675915
0.211334
1.581137
2.104719
-2.440214
-2.342870
-2.264429
-2.326588
-0.157269
1.264979
2.491724
-4.531856
3.507316
2.991221
3.340910
3.848332
-0.925506
-0.695019
2.441763
2.265631
-2.905234
-3.134104
-2.639131
-1.507717
-1.002916
3.528926
3.160072
3.298115
-0.441234
0.768850
1.179946
1.504882
1.107433
4.182775
-1.535081
-1.168460
-0.769114
0.676355
-1.094998
-3.061800
-2.619981
3.711580
1.546682
1.882364
2.193065
1.892560
1.596067
1.622135
2.358792
-3.873643
-3.764869
-3.156702
-3.080825
-3.980101
-3.602419
-3.762796
1.557773
1.894216
2.183872
2.090478
1.547931
2.151796
0.643727
0.139466
-1.865654
-1.642200
3.910651
3.218445
0.362852
0.374631
-3.146528
-3.500557
1.185403
-1.599714
-2.336093
-2.299885
-1.584917
2.112618
2.555279
2.207128
2.625499
1.772599
-3.468355
-3.290262
3.128252
3.455110
-0.712614
-2.162277
-2.586856
-2.147312
2.589021
-0.111857
0.104919
0.577074
-3.234158
4.176212
4.259688
4.439403
-1.864295
-1.538359
-0.508735
-2.232796
1.652531
2.671416
2.841734
3.094003
3.141846
-2.407075
-2.183780
-1.996862
-2.040090
-1.539036
-3.509111
-3.519239
-2.950294
-3.437486
1.565886
0.982155
0.399056
0.966518
2.366380
2.770380
-0.191719
-0.183321
1.762247
-2.834613
-2.965703
-2.241422
-2.168399
1.003577
0.545708
0.604027
1.070921
1.926131
1.512708
0.895081
1.320689
0.980998
1.478447
1.714841
-0.482136
0.499705
1.435817
3.277690
2.996392
4.338914
-0.142038
-0.174021
-0.189322
2.543138
-2.959972
-3.496416
2.206922
-2.097823
-3.885681
1.286350
-0.344119
1.837753
-0.593169
-1.561482
-0.962248
-1.092448
-1.266526
2.501788
2.631300
4.294299
1.636163
0.969403
0.363395
-3.006097
-2.921331
-3.481245
1.176739
2.451800
2.684166
0.111390
0.437946
-2.523543
3.811978
3.146299
3.478121
0.346378
-0.108698
-2.185173
-1.737677
2.770745
-2.419396
4.330558
-2.704852
-3.100631
-2.856783
-2.748482
-3.489665
-3.271679
4.247728
-3.187570
4.291573
-3.369201
-3.294814
-3.533071
2.495129
2.991322
-2.322620
1.174656
0.779099
-0.635245
-1.918683
1.070420
1.984503
2.885468
-1.661591
3.266813
0.541178
0.808109
2.400124
2.419169
-2.344271
0.035785
4.378436
-2.565135
-2.160257
4.485453
-1.868343
-1.885015
-2.674767
-2.437405
-0.169301
-2.178942
-3.696822
-0.853446
4.101849
-1.344270
0.419169
0.988881
-3.279415
4.444771
0.775048
0.344271
-0.411570
-2.090402
-0.415397
3.483995
3.665315
2.458996
2.460005
1.555185
3.842132
1.177300
0.916617
1.362556
0.907783
1.352933
1.727805
1.290563
1.690871
1.251551
0.720915
1.154616
0.757796
1.199672
2.751764
2.886459
0.366808
0.771238
0.355135
0.770980
1.109030
0.720020
1.136714
0.735691
-2.738997
-2.334578
-2.606706
-2.236248
-2.035452
-2.459904
-1.960269
-2.348028
-1.279034
-1.733064
-1.285446
-1.732770
-2.088288
-1.679110
-2.018346
-1.622402
-1.252514
-1.671828
-1.203092
-1.611373
-0.818322
-0.828210
-0.445552
-0.881314
-0.435328
-0.869934
0.667051
0.167388
0.683882
0.191085
-1.155164
-0.683202
-1.212609
-0.766238
-0.330551
-0.799603
-0.446727
-0.891819
-3.639506
-3.505815
0.213646
0.670333
0.155962
0.633074
0.893887
0.470484
0.884381
0.442724
-3.005304
-2.593953
-2.930205
-2.536870
-2.144344
-2.558985
-2.490893
0.640754
0.135110
0.654181
0.149533
-1.701944
-1.260304
-1.742162
-1.304368
-0.885792
-1.318650
-0.905417
-1.336229
-2.988454
-2.817473
-1.658955
-1.965362
-3.166509
-2.684242
-3.021886
-2.576675
0.438456
0.860907
0.394295
0.819042
1.238716
0.801778
1.164107
0.726719
-1.657142
-1.233804
-1.600500
-1.189496
-0.805835
-1.219055
-0.766787
-1.171427
1.696391
2.133808
1.729786
2.174915
2.530483
2.115648
2.573401
2.147477
2.036658
2.433278
2.098823
2.509926
-0.872968
-0.450390
-0.835748
-0.417862
-0.030255
-0.456296
0.001949
-0.422054
-2.957726
-2.523480
-3.022527
-2.586900
-2.168391
-2.625350
-2.206956
-2.670838
-2.993337
-2.871637
-3.342100
-1.571426
1.407139
1.903157
1.445233
1.953686
2.197868
1.722658
2.260902
1.773236
-0.411915
0.029647
-0.381792
0.055798
0.428041
0.002325
0.456359
0.031973
3.630616
0.120660
0.536298
0.888135
0.500371
0.806416
0.412783
-3.042919
-2.721249
-2.898695
-2.604681
-2.308654
-2.659919
-2.214301
-2.542068
-0.331825
-0.792895
-0.306596
-0.758474
2.696471
2.780875
2.989800
2.514881
3.083346
2.587446
-2.861731
-2.339308
-2.867815
-2.340800
-2.018405
-2.012216
1.811205
2.287919
1.790089
2.259769
2.588712
2.134473
2.545593
2.095340
1.740767
2.189052
2.581973
2.149097
-2.011582
-1.767200
-1.764287
3.020897
3.423974
3.024501
3.441396
0.131120
0.624510
0.899432
0.442256
1.187807
1.223854
0.793267
1.591916
1.617193
1.734772
1.785683
1.254697
1.705777
1.219687
1.676297
-1.719408
-1.276355
-1.758574
-0.934058
-1.381315
-0.946796
-1.394086
-1.502784
-1.972573
3.361423
3.516916
2.940520
2.993101
3.366587
2.976831
-2.866233
-2.710842
2.760757
2.861072
3.162394
3.277318
0.624985
0.209935
0.092846
1.718125
1.713997
2.594005
2.153061
2.585062
2.132415
-2.127460
-1.704438
-2.065220
-1.264284
-2.578234
-3.118439
-2.281063
-2.313148
-2.815072
0.814442
1.237038
0.844224
1.271886
1.674508
1.236740
1.703504
1.258128
1.665234
2.122049
2.426424
2.002311
2.074097
0.638659
1.057164
-0.889552
-0.453170
-0.897139
-0.478247
-0.165704
-0.635156
-0.218919
-0.669682
-3.672854
-3.180426
-3.763153
-0.672442
-0.234266
0.123616
-0.301748
1.381532
1.015993
1.256306
-1.539250
-1.916217
-1.477229
-1.842950
1.821325
2.163686
1.891704
2.251447
-2.682805
-2.219509
-1.855600
-1.853796
0.227083
0.566193
-2.489479
-2.757834
-1.992668
-1.563004
-1.127412
-1.506461
0.390713
0.422910
0.384527
0.411957
-0.973484
-0.508060
-0.938368
-0.477675
-0.156763
-0.655948
-0.139873
-0.636585
1.809655
2.305357
1.827463
2.325111
2.637486
2.656741
-0.717635
-1.139453
-1.086238
-2.180185
-2.178354
-1.749046
-1.773666
-1.327787
-1.761649
-2.138372
-2.437483
-2.181153
-2.169601
-3.780003
-3.194210
-3.735133
-3.162515
-3.412703
-2.836494
-3.371990
-0.274737
0.234309
0.689703
0.123375
0.570775
1.589052
1.647220
2.381495
1.993363
2.464088
2.061691
2.583776
2.700618
3.028237
2.344261
2.290770
2.648916
2.811059
-1.724812
-1.297111
-0.921831
-1.369558
-0.889279
-1.332973
-2.124204
2.752591
2.368173
2.909818
2.480920
1.509054
1.568784
1.965670
-2.564707
-2.254839
0.549881
1.013105
1.025787
-2.367781
-2.272927
0.856313
1.287418
0.843284
1.278247
2.435148
0.116918
-0.731815
-1.315842
-1.299595
-0.349452
-0.320742
0.055433
-0.357366
0.065041
-0.344070
1.359271
1.826442
2.173820
-1.715535
-1.673715
2.007021
2.007757
2.865622
2.850699
2.316944
2.746929
3.189539
2.875337
2.280966
1.774868
-3.400224
-0.595849
-0.152305
-0.583642
-0.138720
0.198964
-0.261326
0.234791
-0.229778
3.317037
2.799194
-1.054808
-1.045176
-0.742407
-0.716406
-0.052006
0.369053
-0.027788
0.396654
0.769300
0.356679
0.808941
1.327191
1.277624
-2.903588
-2.442952
-2.078259
-1.180284
-0.785677
-1.192000
-0.815650
-0.537818
-0.939289
1.176635
1.737354
1.191864
1.761047
1.989336
1.473836
1.567435
1.966848
1.609664
2.040985
2.236598
1.864455
2.330324
1.928756
1.180483
1.593005
1.711238
1.332599
3.197493
3.315929
3.642385
-1.829289
-1.767206
-1.629848
-1.588495
2.021945
1.716591
1.928379
1.604161
-0.055306
-0.027919
0.324453
0.338678
1.699163
-0.840161
-0.412946
-0.460853
-0.074756
-0.498072
-0.089734
-0.512755
-1.569888
-1.911456
-1.556030
-1.311648
-1.719042
-1.327337
-1.699007
0.629672
0.127025
1.154090
0.925074
0.954323
2.551863
2.984457
2.487429
2.915297
3.401833
2.976515
3.298319
2.872794
-0.228127
-0.575845
-1.035918
-0.702801
-1.163470
1.121922
1.132505
1.304179
2.115882
1.677662
-1.328812
-1.108849
-1.118627
-0.906618
-0.455252
-0.140237
-0.626568
-2.119419
-1.674150
-1.615577
-1.365796
-1.268269
-0.842417
-0.942830
-1.390770
2.603435
2.837742
-0.306396
-0.741667
0.791224
-0.795544
-1.625171
-2.087445
0.005053
-0.043255
0.731502
0.335544
0.321265
0.737284
1.143142
0.776205
1.191028
1.626206
0.713148
2.140654
2.566178
0.679633
1.105633
0.827282
0.862705
1.226857
1.268072
0.844411
1.317715
0.945031
1.168826
0.794380
-2.202491
-1.831839
3.152706
2.638173
3.083869
-1.813684
-1.349580
-1.839810
-1.527487
-1.552106
-1.158695
-0.812818
-1.238957
-0.787446
-1.199960
-1.941919
-1.868035
1.145290
0.673544
-2.285126
-1.780815
-1.485127
-1.126289
-1.525035
-1.177749
-0.891285
-1.255170
2.840813
-1.628732
-1.467907
-1.098773
-0.749027
-0.806274
1.267719
0.006557
0.458993
0.483998
-1.827320
-2.159592
-1.847480
-2.145163
-2.316303
-1.990755
-3.458723
-3.396157
0.544224
2.256180
1.974894
-3.165198
-1.523293
-1.030345
-1.512288
1.078266
1.450492
1.102056
1.484464
1.451990
-3.323794
-2.241371
-2.146015
3.431081
3.405695
3.765071
3.174269
3.735915
-0.013409
0.332102
-0.125252
-0.243460
0.043673
-0.388170
-2.616449
-2.605534
-1.564885
-2.608138
-2.154689
-2.620876
-3.050067
0.022377
-0.021921
0.370282
0.296183
-0.317018
-0.749721
1.201054
1.772153
1.209727
1.772815
1.490590
1.498458
3.147992
-0.487498
-0.086688
-0.538252
-1.287038
-0.850808
-0.392942
0.025826
0.423189
-2.660002
-2.607213
-2.158683
-1.790914
-2.268420
0.999449
-1.942672
-1.869938
2.529222
2.421854
2.273348
1.919475
0.892105
0.476947
0.910974
1.295569
0.868625
0.875801
1.179599
1.596537
1.652700
-1.182312
-0.116169
0.317511
0.350561
0.268548
0.299024
-0.348555
-0.357819
-0.005304
2.475086
-0.761084
-0.377301
-1.597353
-1.374977
-1.705894
2.594414
3.058885
-1.227077
-1.761413
-1.215353
-1.638260
-1.667641
-0.083974
0.330653
0.704183
0.290660
0.686053
0.275154
1.226995
3.011048
-0.355516
0.053171
-1.014554
-1.725007
0.453300
-0.709102
0.000165
-0.412885
-0.780600
-1.242213
2.499126
2.615678
3.010243
1.110730
0.319056
0.755469
0.940463
-1.699389
-2.181546
-1.814731
0.484665
0.474816
0.796611
0.298813
0.760705
1.844250
-2.614939
-3.300029
-2.489136
3.398141
-0.016021
0.398975
0.429643
0.750927
0.317508
-1.145922
-1.122148
-0.179253
1.194097
1.644156
1.628825
0.980641
0.509538
0.531599
1.170627
-0.313810
-0.384630
-2.458642
-2.832780
-1.320295
0.787389
0.803404
2.068842
1.955512
1.532681
1.919586
1.537681
0.872610
-3.093319
-1.747134
-1.198906
1.315501
1.557882
1.187182
1.131427
-0.349899
0.445955
2.114582
2.600593
-3.052215
-3.027611
-2.969234
-3.178862
-2.404848
-2.777256
0.034973
0.410189
-0.564691
-0.203873
-0.697641
2.050133
-2.436072
-2.022013
2.152476
2.163624
3.728847
0.319840
-3.286490
1.773097
1.998612
2.904206
1.489322
-1.916332
-2.003880
0.082092
-0.677334
-1.174043
-0.817431
-3.047652
0.105860
1.607077
1.487288
-3.344912
-3.441189
1.661913
1.520702
1.655072
1.367271
-0.508608
-2.773280
-1.285971
1.341578
1.801927
2.130327
0.004094
-0.432921
-3.476431
-0.899480
-1.128431
-0.741188
-0.385129
1.309458
1.606014
1.146057
-2.125976
-3.005434
-2.551074
-0.822680
-1.489580
-1.005533
-1.454338
-1.169198
-1.244668
-2.884169
-2.096631
-2.530386
1.333238
1.851263
-0.021126
-0.479821
-0.060277
-0.474293
-0.061864
-0.126195
0.219115
-2.200359
-1.950029
-1.892771
1.848784
-0.130298
-1.503698
-0.330696
-0.056381
1.475168
1.696137
-1.410364
-0.867737
-0.950443
-0.554252
-0.103027
-0.506454
-0.215692
-0.626941
2.534586
-1.735390
1.503588
1.825918
1.024938
-0.425748
2.201904
