# vtk DataFile Version 2.0
Unstructured Grid Example
ASCII
DATASET UNSTRUCTURED_GRID
POINTS 3278 float
2.420810 14.081300 -2.482910 
2.436020 13.196500 -2.326910 
4.828170 14.443500 -0.389176 
4.818510 13.608800 -0.243342 
2.704590 13.241600 -2.325500 
2.704640 14.085100 -2.474550 
2.384710 14.424400 -0.000000 
4.826930 14.499100 -0.008766 
4.827900 13.611900 -0.008133 
2.427030 13.407000 0.000640 
3.072180 14.362600 -0.767822 
3.126480 13.487000 -0.669349 
2.615730 13.226700 -2.332200 
4.331890 14.441000 -0.451557 
2.427900 13.278300 -1.787850 
2.427900 13.266100 -1.877200 
2.473940 14.081700 -2.482990 
3.484660 14.368500 -0.862533 
3.540240 14.375800 -0.821192 
2.733960 14.143300 -2.139740 
2.721280 14.128200 -2.225060 
2.427900 13.210900 -2.234170 
2.427900 13.391600 -0.418754 
2.427900 13.388000 -0.516140 
4.827900 14.194600 -0.345105 
4.827900 14.109600 -0.330126 
4.743460 13.609200 -0.244588 
2.908080 13.397400 -1.446230 
2.873260 13.384200 -1.521570 
2.702900 13.480300 -2.376960 
2.702900 13.398200 -2.362470 
2.702900 13.565100 -2.391900 
4.827900 14.024600 -0.315127 
2.422980 13.508400 0.000245 
4.280000 14.498600 0.000000 
4.371330 14.498500 0.000000 
2.428030 13.398100 -0.107098 
3.948300 13.583100 0.000000 
4.037560 13.588700 0.000000 
2.385770 14.415400 -0.129416 
2.532100 13.213100 -2.329810 
2.573640 13.219800 -2.331000 
2.985110 13.423200 -1.300430 
2.944670 13.410500 -1.372060 
2.427900 13.384200 -0.612717 
2.427900 13.379400 -0.706243 
2.427900 13.225600 -2.144100 
2.485320 13.205100 -2.328410 
2.702680 13.317900 -2.348120 
4.255380 13.595600 -0.322528 
3.223750 13.517000 0.000000 
3.317190 13.527500 0.000000 
2.427900 13.301200 -1.609110 
2.427900 13.290100 -1.698490 
2.412400 13.382400 -2.359690 
4.126070 13.593400 0.000000 
4.827900 13.939400 -0.300120 
4.827900 13.854600 -0.285160 
4.827740 13.688500 -0.255692 
2.410980 14.094700 -2.388230 
2.702640 13.996100 -2.467610 
4.827960 14.360800 -0.374462 
2.413870 13.993500 -2.467430 
2.415460 13.906700 -2.452130 
4.389780 13.604600 0.000000 
4.477710 13.607100 0.000000 
2.768910 14.172600 -1.973730 
2.749330 14.158100 -2.055720 
2.702900 13.909100 -2.452550 
2.702900 13.822500 -2.437270 
2.409940 14.107900 -2.295200 
2.707400 14.098500 -2.395270 
4.827900 14.139700 0.000000 
4.827900 14.052300 0.000000 
4.827260 14.493700 -0.072082 
2.644680 14.082700 -2.482900 
3.119980 14.301600 -1.241750 
3.075330 14.290300 -1.305920 
2.397510 14.266000 -1.181030 
2.398540 14.252900 -1.274030 
2.405810 14.160400 -1.924710 
2.791170 14.186900 -1.892690 
2.387160 14.397600 -0.254105 
2.388510 14.380500 -0.374721 
3.030920 14.279000 -1.370440 
2.989160 14.266900 -1.438820 
2.947190 14.473600 0.000000 
3.050050 14.478500 0.000000 
3.097480 13.839700 -0.700358 
4.827900 14.277900 -0.359804 
3.315870 13.499400 -0.867786 
3.259660 13.489100 -0.926042 
3.084640 14.102300 -0.732671 
4.093770 14.428700 -0.521379 
3.315810 14.341200 -1.017080 
3.370740 14.350800 -0.963063 
3.025390 13.491700 0.000000 
3.124950 13.504500 0.000000 
2.388930 14.323600 0.000000 
2.499610 14.442200 0.000000 
3.479870 13.525500 -0.720438 
2.614900 14.450600 0.000000 
2.729750 14.459300 0.000000 
3.796630 14.405300 -0.653844 
3.869280 14.411600 -0.618058 
3.410540 13.537900 0.000000 
3.501390 13.546700 0.000000 
3.592250 13.555400 0.000000 
2.747940 13.314700 -1.915780 
2.733220 13.300500 -1.996500 
2.427900 13.374400 -0.799524 
2.427900 13.368300 -0.890544 
2.427900 13.362200 -0.981564 
2.427900 13.396800 -0.213347 
2.427900 13.394400 -0.316772 
2.560400 13.421600 -0.000109 
2.686700 13.442100 0.000000 
2.807500 13.460700 0.000000 
2.427900 13.355200 -1.070850 
2.427900 13.348100 -1.160010 
4.565260 13.609200 0.000000 
3.071330 13.447600 -1.161700 
3.026510 13.435600 -1.229620 
3.102670 13.752000 -0.690601 
4.412700 14.444300 -0.433098 
4.493930 14.446700 -0.418966 
3.212180 13.479700 -0.979983 
3.116870 13.575500 -0.674724 
3.165240 13.470100 -1.034150 
3.117490 13.459100 -1.096380 
3.370690 13.508900 -0.814210 
3.423770 13.517300 -0.766583 
2.917490 13.476500 0.000000 
2.427900 13.339800 -1.249750 
2.427900 13.331100 -1.339730 
2.812070 13.357400 -1.673170 
2.788910 13.343300 -1.753330 
3.681300 13.563100 0.000000 
4.099310 13.587200 -0.370424 
4.176580 13.591700 -0.344948 
3.803070 13.563500 -0.504529 
3.877620 13.570300 -0.465575 
4.827900 13.611600 -0.046593 
4.740490 13.611300 0.000000 
4.827900 13.700900 0.000000 
2.949120 14.254500 -1.508990 
2.912070 14.241600 -1.582290 
4.574740 14.448800 -0.407186 
4.654520 14.449900 -0.401117 
4.827880 13.610500 -0.167634 
4.827600 13.610400 -0.205428 
4.827860 14.472100 -0.264423 
4.827320 14.461700 -0.325885 
4.735860 14.451100 -0.395930 
3.537430 14.498800 0.000000 
3.632210 14.499200 0.000000 
3.599750 14.383300 -0.778879 
3.661440 14.390800 -0.736028 
3.942730 14.417700 -0.583467 
4.017900 14.423300 -0.551439 
3.912450 14.499200 0.000000 
4.005000 14.499100 0.000000 
3.726370 14.499400 0.000000 
3.819540 14.499300 0.000000 
2.403730 14.186900 -1.738800 
2.404770 14.173600 -1.831790 
4.644740 14.499600 0.000000 
4.462560 14.498700 0.000000 
4.553730 14.499100 0.000000 
4.827360 14.407700 0.000000 
4.735820 14.499900 0.000000 
4.827720 14.316700 0.000000 
4.827830 14.228000 0.000000 
3.728650 14.398100 -0.694686 
3.076470 14.275600 -0.755871 
2.708060 13.259500 -2.228210 
4.827900 13.770600 -0.270346 
2.846020 14.214800 -1.734360 
2.815360 14.201000 -1.812350 
2.395410 14.292800 -0.992607 
2.396470 14.279400 -1.087230 
4.334870 13.599400 -0.301466 
4.416350 13.602400 -0.284198 
3.347000 14.492500 0.000000 
3.442310 14.496300 0.000000 
2.399580 14.239700 -1.366950 
2.400610 14.226500 -1.459780 
2.417040 13.734300 -2.421730 
2.415550 13.648100 -2.406530 
2.767760 13.329100 -1.834300 
3.537690 13.533500 -0.674789 
3.599310 13.541400 -0.629642 
4.652860 13.610500 0.000000 
4.827900 13.611200 -0.085117 
4.827900 13.610800 -0.126470 
3.427790 14.359900 -0.911431 
4.827900 13.964900 0.000000 
4.827900 13.877400 0.000000 
2.529010 14.082200 -2.483060 
2.586850 14.082600 -2.483140 
4.214250 13.597700 0.000000 
4.301940 13.601500 0.000000 
4.827550 14.487600 -0.135737 
4.827730 14.480000 -0.200189 
2.713040 14.113000 -2.311430 
2.390980 14.349100 -0.596069 
2.392130 14.334500 -0.699260 
2.393190 14.222000 0.000000 
2.397500 14.119200 0.000000 
2.406840 14.147300 -2.017480 
2.407870 14.134200 -2.109770 
3.663460 13.549100 -0.585988 
3.731420 13.556500 -0.544568 
2.841620 13.370800 -1.597200 
4.024420 13.582200 -0.398760 
3.770340 13.570700 0.000000 
3.859250 13.577000 0.000000 
2.389760 14.364600 -0.486678 
2.427900 13.321700 -1.429640 
2.427900 13.311700 -1.519490 
2.878100 14.228300 -1.657590 
4.171290 14.433400 -0.494412 
4.251220 14.437500 -0.471305 
3.151830 14.483400 0.000000 
3.249850 14.488100 0.000000 
2.416560 13.820400 -2.436910 
3.950710 13.576500 -0.430829 
3.163490 14.311500 -1.185880 
2.427900 13.253000 -1.966110 
2.427900 13.239800 -2.054940 
4.097030 14.498900 0.000000 
4.188580 14.498800 0.000000 
2.401650 14.213300 -1.552720 
2.402690 14.200100 -1.645790 
2.401760 14.017400 0.000000 
3.261430 14.331500 -1.072390 
3.208050 14.321300 -1.130050 
2.702900 13.736200 -2.422070 
2.702900 13.650200 -2.406900 
2.414160 13.560900 -2.391150 
2.412850 13.472800 -2.375630 
4.498060 13.605100 -0.268659 
4.580460 13.606800 -0.258644 
2.414820 13.290400 -2.343450 
4.662990 13.608300 -0.250341 
2.393250 14.320200 -0.799786 
2.394340 14.306500 -0.896751 
2.408910 14.121100 -2.202390 
4.827900 13.789400 0.000000 
2.720220 13.286400 -2.075970 
2.713940 13.273300 -2.150460 
2.406000 13.916100 0.000000 
2.410230 13.814800 0.000000 
2.839380 14.466600 0.000000 
2.414500 13.713100 0.000000 
2.418830 13.610300 0.000000 
3.092950 13.927300 -0.710724 
3.080640 14.188900 -0.744098 
3.088730 14.014700 -0.721491 
3.108880 13.664000 -0.681795 
2.418500 13.610100 -0.110035 
4.316840 14.450200 -0.378453 
4.827900 14.136900 -0.054429 
4.827900 14.133800 -0.111114 
4.827900 14.130600 -0.167799 
2.767830 13.486600 -1.861660 
2.424920 13.373600 -1.802110 
2.498930 13.289800 -1.793720 
2.569960 13.301300 -1.799590 
4.475980 13.695800 0.000000 
2.602170 14.139200 -2.120300 
2.668060 14.141300 -2.130020 
2.907820 14.280000 -1.300520 
2.423560 13.492900 -0.522105 
4.022590 13.825000 -0.445102 
4.098640 13.830700 -0.415620 
4.827900 14.202800 -0.289356 
2.714010 13.438000 -0.436191 
2.730720 13.436900 -0.541176 
2.470050 14.108800 -2.296200 
2.531370 14.109900 -2.297940 
2.823740 13.388200 -1.413510 
2.707770 13.413200 -2.274270 
2.644970 13.396100 -2.362090 
4.028760 13.767900 0.000000 
2.645560 13.564400 -2.391780 
2.708120 13.579900 -2.306020 
4.827900 13.866500 -0.190903 
3.211450 14.230300 -1.112840 
3.164390 14.220400 -1.167730 
2.401260 14.167200 -1.262580 
2.402130 14.154800 -1.355620 
2.810670 14.240300 -1.538300 
2.909460 13.634600 -1.485880 
2.944960 13.487700 -1.385200 
2.414320 13.922000 -2.360310 
2.788920 13.421100 -1.767460 
2.767460 13.407300 -1.847960 
2.748710 13.392600 -1.929370 
4.282550 14.489000 -0.075855 
2.536620 13.723700 0.000000 
2.845600 13.947300 -1.691430 
2.844270 13.860900 -1.677750 
3.430270 13.536300 -0.220552 
3.943290 13.673300 0.000000 
4.254670 13.757000 -0.351197 
2.424090 13.336000 -2.070820 
3.665630 13.707400 -0.614331 
2.874240 14.266900 -1.379300 
2.841050 14.253800 -1.457660 
3.945990 13.988100 -0.507088 
2.423270 13.503900 -0.108913 
2.749860 13.637700 -1.970870 
3.450160 14.412700 -0.530048 
2.539300 13.229900 -2.236210 
4.096580 14.000200 -0.446450 
2.528440 13.301400 -2.345380 
2.409460 13.907400 -1.228290 
2.412260 13.819200 -1.216790 
2.412770 13.808500 -1.309360 
2.792620 13.375100 -1.491600 
3.031650 14.188000 -1.354920 
2.529810 13.994800 -2.467670 
2.587560 13.995200 -2.467740 
3.642470 14.206300 0.000000 
2.748970 13.472500 -1.943170 
3.315780 13.653200 -0.895197 
2.483820 13.235100 -2.145040 
2.579880 13.307600 -2.346490 
2.411540 14.022100 -2.282060 
2.639190 13.313600 -2.347500 
3.326470 13.526900 -0.117533 
[...]
CELL_DATA 2460
SCALARS u float 1
LOOKUP_TABLE default
112.476490
107.338400
150.708805
145.631967
109.348340
114.340460
134.069439
153.584833
147.334163
127.194765
132.392895
132.042057
133.438199
132.949806
133.903473
126.705576
127.307573
128.330640
128.533795
127.441737
108.798740
146.962629
146.136178
111.547460
112.378940
110.716910
112.940050
136.215288
135.313550
137.110563
117.830840
116.926720
116.038700
108.199870
123.825759
124.638098
123.024934
149.038152
149.604148
148.470445
144.945227
118.402200
119.390110
117.429820
110.374910
110.924470
109.852750
111.483920
147.896485
127.950190
149.906998
149.158413
150.647442
126.320613
139.924712
140.708357
141.477916
132.973868
108.310060
107.824050
120.388070
121.391650
122.230318
121.431663
109.050990
141.080360
140.244406
134.226274
133.356956
135.072978
113.206760
114.043680
107.886470
108.468390
142.241779
147.324581
146.759784
146.200437
113.315710
113.752660
150.149794
111.899360
111.338000
144.472009
143.733762
145.199940
118.750460
119.682780
113.182270
112.615140
114.160860
115.175990
151.492970
150.802603
150.113274
153.025431
113.866310
128.488800
129.451840
127.509040
123.642080
124.519140
122.764980
116.708830
117.568340
120.628660
131.894802
130.870895
126.521020
125.527910
138.795291
137.912309
139.653768
130.335916
129.997348
130.568477
130.937519
129.302095
128.516611
129.926638
129.120946
128.984816
129.551310
126.292345
130.691740
130.317853
131.714931
130.906088
131.262115
132.283733
132.134637
132.724452
131.168553
131.774996
144.426152
143.542906
134.399381
132.457053
131.520524
133.317350
135.077303
130.194571
131.102313
136.053458
137.000211
140.806746
139.876936
141.729410
135.908290
136.729326
137.540483
112.765150
113.665190
111.893970
120.628534
119.816601
118.999881
125.469978
128.360638
129.483775
130.533567
118.180500
117.356850
145.922605
122.397230
123.393990
129.430297
128.418196
129.732559
128.677536
127.908871
147.765425
148.539955
125.331171
127.304189
127.857287
128.875330
128.056495
129.131720
124.372719
129.286643
116.538530
115.706880
116.469320
115.519790
114.585630
138.343452
139.393223
138.526374
135.808413
134.865279
136.734052
146.991451
146.637770
148.047065
124.535000
123.548290
149.275308
149.979075
145.972705
146.306003
151.307213
151.884040
143.774800
142.969284
144.561925
138.017645
138.944831
142.642256
146.889191
146.118658
147.651994
145.340862
118.425430
119.290240
152.130683
152.865259
151.390989
152.889524
152.183986
131.832088
131.485312
132.854215
133.310845
132.367348
110.282000
121.591810
122.567290
125.401307
126.283963
141.900040
142.704114
141.327547
142.150793
121.894850
121.026850
110.207430
110.775950
109.631340
132.029698
132.970032
146.647280
149.425966
148.737480
113.404330
142.992008
152.456680
128.963610
129.896581
128.058828
132.549178
131.781878
115.857730
115.010350
133.916088
137.641454
139.136196
114.875280
145.290272
140.494564
130.399084
109.888490
148.406598
120.157170
131.015311
131.358832
112.049740
109.050390
143.480632
144.225251
127.169123
111.074960
130.248089
129.483564
128.717526
129.721904
130.121154
131.141688
130.550059
131.537817
127.072395
127.831406
146.673237
147.495770
150.345600
151.011552
149.882679
150.524176
149.417535
150.035037
114.195700
114.739720
115.660740
115.115870
112.147370
112.982950
112.135850
113.000680
112.696850
113.589020
145.886581
145.157197
116.470260
116.004120
116.894630
117.370050
126.029650
127.030210
123.730692
124.547049
140.162228
139.611787
138.719572
139.268257
141.036978
140.484802
150.132722
149.540191
125.077641
126.268408
127.004926
125.853392
124.309476
125.536533
113.795230
114.649280
114.265600
115.128430
117.888030
118.856660
111.235500
110.735260
109.353940
109.902280
142.828534
142.153116
141.380013
142.054529
110.460860
111.025260
112.337340
111.780200
147.166759
147.756785
148.184810
147.566514
129.826010
130.800794
128.872890
122.201070
123.072700
121.330310
123.050690
124.041800
119.474330
120.035730
121.029630
120.465190
119.918890
120.919010
112.750540
112.188140
116.052390
113.290820
149.262658
148.483576
130.530020
129.787022
119.825700
120.414340
121.385790
120.797270
119.245840
120.212430
133.495441
134.409150
135.115915
134.234554
140.596812
142.178105
141.626149
140.789948
141.340257
109.635120
110.480120
135.016193
134.464412
133.516626
134.068975
125.035170
140.382940
139.823474
138.914619
139.475925
114.388620
114.951770
115.863630
115.296980
138.543424
137.607638
138.289930
139.225262
109.241000
108.710130
142.152636
141.593668
140.717077
141.275321
108.863020
108.375620
120.459090
121.049360
121.911190
121.316480
119.859250
120.708740
119.008170
119.600100
116.929950
125.937370
126.928610
112.834620
112.368720
113.295910
143.122756
142.418195
141.622156
142.332146
113.833420
109.573780
113.598450
133.348541
143.817517
142.921629
143.647477
144.513615
114.109540
115.038400
114.496730
113.199070
113.869790
114.755800
115.639690
115.414670
118.151850
119.043640
142.917250
116.220490
116.788960
117.725010
117.156370
116.596640
141.925895
141.056626
142.786737
119.657712
120.306266
121.138837
120.483148
127.397124
127.955265
127.386088
128.305822
126.451975
126.212377
126.956193
135.045740
134.479282
133.582949
134.144545
132.570035
131.917111
132.874698
133.816298
124.909773
125.443767
126.415790
125.871826
133.561846
132.798933
125.380010
126.361670
111.060200
111.901200
111.311420
144.580493
144.028362
143.249846
143.800449
146.054052
146.615002
146.575512
139.370350
140.190954
150.716532
149.386279
148.703478
147.978783
148.659288
137.698052
138.537734
111.804750
124.405630
123.635560
124.573100
143.331284
144.087879
142.940528
143.710812
149.681096
149.245769
112.089400
111.568680
136.409937
135.736380
134.887891
135.560541
137.243099
136.572208
137.813300
137.272574
136.352380
136.895742
125.350260
126.344630
122.173560
122.774460
123.637577
123.028686
121.561330
122.409504
117.562360
118.156170
118.406680
144.830550
144.468695
115.320780
115.886540
116.740160
116.172160
114.746870
115.596570
117.008760
117.867360
136.171453
137.092637
137.508979
136.600077
127.908200
144.419016
123.946790
117.261920
116.151590
119.101070
120.046880
119.207780
120.148530
117.941000
118.522470
119.461670
118.875660
131.248013
132.285735
141.511583
140.946358
140.036207
140.597112
152.160225
110.096620
110.598170
111.437390
110.955920
126.660507
127.499451
138.929992
138.068933
144.620786
143.840426
140.591620
141.424033
141.772398
140.955602
135.678413
137.112768
136.220131
118.104750
118.672240
119.631990
119.062850
141.895990
117.885410
118.461270
119.322250
118.742650
120.089320
120.830740
121.831240
121.044610
133.966775
139.805704
139.012207
120.185850
120.761400
121.629950
119.893080
145.890569
145.331053
145.142304
144.776737
148.884091
149.426386
118.731360
119.597140
125.108431
125.701485
126.580491
125.982167
124.501230
125.369063
124.236655
124.823836
121.966813
122.617002
123.453710
122.789415
121.303435
122.113820
134.687372
134.016497
133.119206
133.793272
117.303400
139.771848
133.914361
133.011740
110.210880
145.500219
121.782840
122.368140
123.354490
122.772750
123.929630
141.088874
140.158623
140.982720
141.884826
142.013513
142.773269
118.001620
118.828350
147.195617
146.627730
145.826402
146.392522
109.920620
109.348130
108.774030
127.325750
132.381784
131.420510
116.338900
117.268570
141.161526
139.672685
140.237871
119.839330
148.551020
147.870994
147.128176
147.805220
136.666967
129.829530
147.330861
121.925980
113.818450
142.717627
141.839162
143.852922
142.974858
144.097586
144.977671
122.068710
138.263854
137.378948
138.469094
139.326354
139.163299
140.188669
129.202942
130.086345
131.563964
146.204629
145.365836
146.105167
146.909303
147.028825
147.696826
112.727940
112.269140
143.627520
144.458137
122.607180
123.185280
124.186020
123.611000
135.984521
136.845293
132.094756
131.515743
130.945270
127.463721
128.360523
138.858194
139.708322
138.402526
139.275544
130.959021
131.643411
141.724688
140.923283
119.946310
120.858960
129.089228
129.658663
121.605730
122.189740
120.612080
121.197920
145.833760
130.978796
131.912116
133.807080
133.234459
134.828259
135.731553
142.407308
115.980120
127.782348
128.613322
117.014800
117.592020
116.099070
116.675370
123.366490
122.496730
132.209067
131.651701
130.741723
131.302675
121.499890
122.459660
111.279710
111.820300
150.032779
149.345523
148.611437
149.295104
130.228517
147.053673
146.375162
145.616837
146.296076
150.658093
120.084152
122.002597
120.976631
119.192910
134.932159
118.502990
117.958000
118.930720
142.075985
119.143880
147.188514
146.457682
140.419925
139.481313
112.307380
137.395619
132.430072
138.200212
137.333988
137.477169
136.605011
146.413702
145.566516
128.431975
129.156800
130.085649
129.337271
147.297083
146.610837
146.571391
143.054060
143.907598
143.207440
121.856785
114.661900
115.267980
116.116090
115.499600
130.156867
129.061323
112.411740
139.938013
147.759487
145.566182
128.518655
127.528124
128.104855
150.074950
114.598570
145.564526
144.716308
119.249600
131.861092
130.383458
132.460837
142.519284
141.835434
141.039731
143.304290
142.621863
122.931520
148.323106
132.670004
133.811490
134.685186
134.326733
117.250500
118.168620
116.349280
138.375980
137.809458
136.878296
137.446346
138.552198
139.111698
121.006780
121.977940
148.947950
129.283889
148.298545
149.078077
126.842007
129.315650
130.254836
139.067795
138.178974
145.838584
126.963570
125.993091
115.463260
147.250219
146.512726
109.993820
110.563550
109.426250
138.067324
138.208429
130.475448
129.521360
121.778680
122.701990
123.428650
117.794280
118.633060
117.172800
116.955060
129.793016
130.723630
131.557402
130.627335
132.181558
131.197803
129.653209
112.902210
113.464970
114.322690
113.755450
150.767137
125.754301
132.768901
116.526560
118.200390
117.417150
142.250873
141.529784
140.714969
141.434344
140.815062
118.301950
148.452628
147.696753
149.200802
113.580550
114.421220
114.722380
147.843283
148.643925
122.957020
123.941880
135.414337
118.283810
135.705257
134.977933
134.035610
134.770696
125.372169
110.492900
111.348060
110.780200
126.165590
126.742160
127.712790
127.138466
115.299090
139.308743
120.462150
119.030780
124.937250
126.562645
125.021170
125.593000
112.949400
112.765670
113.329770
114.178980
113.616530
138.359096
137.440184
137.993033
112.741040
113.324480
114.168050
112.479490
145.698634
145.026159
144.268764
144.943857
116.448230
117.305440
150.562858
138.885108
139.745155
140.124987
141.357823
143.592488
144.351376
143.671617
128.068929
129.051677
128.822422
121.780598
120.939820
134.624399
133.129699
133.688484
132.577032
145.401340
146.990560
145.533553
146.228956
147.746763
116.716350
130.829066
139.557670
138.880738
138.743026
152.286593
151.541885
121.101820
138.001178
150.789357
150.026446
150.686531
149.944002
139.998890
139.293856
138.464025
139.170236
138.603262
137.770597
146.944350
128.291260
151.679427
152.361318
151.459927
151.175244
151.822948
148.496335
115.199160
114.626240
121.467890
122.034430
123.040630
122.476580
144.765249
145.462449
111.915020
112.477770
111.062780
135.316123
134.747885
148.602801
149.014904
148.802029
118.168520
117.599760
114.029390
125.181200
125.759230
136.431931
137.353226
110.430390
148.152981
148.712777
123.609541
124.287026
125.122272
124.430976
122.922106
115.523080
116.437350
134.290157
135.236408
134.791127
135.660838
128.676766
132.858631
131.880672
125.511220
127.346780
146.286667
142.282939
143.196024
140.994876
137.612960
115.031590
114.468670
113.050870
113.899010
144.701391
128.032930
142.446767
142.574929
143.359633
142.236625
143.033477
141.944379
141.269745
140.478072
141.154558
142.729211
145.288021
145.213510
145.936526
116.335350
115.862500
126.101775
110.672330
110.098230
111.241000
111.703500
111.134550
112.161040
111.593780
116.999690
138.179468
137.617627
136.681410
137.243923
140.607522
147.681031
147.311514
145.598264
145.271624
136.310925
138.743878
135.957397
136.532414
144.852496
129.044228
130.056207
151.271511
136.516697
136.746441
148.348743
140.542961
137.062185
136.123116
124.764680
123.766120
124.349020
146.938223
146.175025
135.626250
117.793070
118.702340
133.340818
115.587850
112.200370
125.262380
114.891720
115.774360
144.127069
144.876075
143.806108
144.551574
127.113358
127.745999
128.655835
128.006709
126.237830
126.858637
141.793537
142.569443
137.992075
143.285247
144.176853
143.503404
143.401604
147.959096
148.018869
132.901474
124.775537
147.400830
147.969096
146.059260
145.257610
142.157526
114.059740
111.626720
130.852056
151.708277
135.387184
134.822228
129.248446
115.012750
136.510509
120.093220
119.469230
143.863555
143.297810
142.453747
143.016939
142.737173
147.592388
146.836157
147.027654
146.270550
124.951217
125.799216
125.602351
126.464061
112.635330
114.448280
135.309260
147.189250
146.446474
147.927197
135.568782
135.962048
149.829183
124.464320
123.477390
124.037430
124.606760
133.340233
134.255763
144.998678
144.432908
143.585826
144.151449
124.736233
119.624850
120.554300
134.721075
145.492810
144.689219
144.929478
144.124736
135.747479
135.184625
130.006936
113.501100
130.245273
109.774430
115.514470
116.385110
113.038260
140.113512
139.425194
138.330404
137.622169
136.764952
136.923751
136.063269
144.363542
142.998622
143.559448
117.026930
116.448290
118.297580
140.072842
145.099596
145.770789
124.743962
124.105460
149.242835
134.259530
133.554930
132.588391
133.307285
149.984996
150.725846
123.859074
122.943368
123.799810
122.824006
139.684135
136.264970
135.516617
134.554479
133.800348
130.571073
123.519363
122.703925
149.427964
150.199371
144.080543
151.427672
137.087998
136.238607
137.920091
127.696964
128.585710
127.536418
128.239980
126.821286
132.892703
133.872201
131.989864
140.236290
140.360877
111.630770
131.134756
129.871424
128.926217
113.889720
114.740830
135.547763
139.047193
150.957938
143.991224
135.176424
134.480250
135.885427
132.038689
123.256945
148.057013
147.243461
148.853341
128.336119
141.360571
145.704933
148.350442
117.362700
129.597559
144.689211
113.192100
131.043654
136.440026
137.181670
127.341383
149.629942
135.371160
109.522010
108.947610
133.051904
132.305981
139.885379
135.858382
150.390168
151.137216
117.544650
123.884883
131.572282
126.658563
131.279823
115.593630
125.965140
147.040862
146.455182
144.971858
144.108749
145.588910
144.749027
143.160290
143.763333
142.300514
142.905224
144.333210
143.702169
143.496574
142.867443
129.753827
130.376548
131.297492
130.655405
115.614080
116.187680
115.034270
115.617430
117.113090
116.533640
116.511160
115.922560
145.489589
146.122364
144.697205
145.328962
146.622466
145.963482
145.847452
145.193170
143.200766
142.396448
143.592980
142.805623
145.500579
144.754858
116.801010
117.715710
146.914464
146.089451
147.456176
146.644461
143.898236
145.448555
144.630963
119.374250
119.956310
120.922700
120.342580
148.220056
148.883866
147.477391
148.140094
139.262894
139.890103
138.383370
139.012168
140.498814
139.842954
139.659670
139.004367
121.625900
122.223720
120.696243
121.316240
123.187121
122.585068
122.214234
121.590500
145.144688
144.395763
116.701660
117.275410
118.220180
117.645500
143.799440
142.969313
120.147530
120.737870
119.584640
120.174590
121.723350
121.133500
121.132540
120.541010
141.653532
142.309786
140.847008
141.503792
148.293715
148.953993
147.562467
143.228235
142.331471
143.029467
135.364491
135.975920
134.427607
135.036188
136.587089
135.951967
135.675154
135.042118
142.046599
141.465060
141.135457
140.558863
142.409334
141.531270
142.154161
143.139010
142.304909
113.244140
112.704710
114.142530
113.575740
144.977492
143.620187
144.200002
145.368919
144.753941
144.599661
143.984167
118.143690
117.592910
119.065110
118.486540
112.692600
113.260590
114.131570
113.564890
138.809929
139.467259
137.946878
138.608808
125.975727
126.615128
124.808094
125.469256
127.435587
126.790680
126.290508
125.619360
136.770372
135.901065
137.823747
136.963182
129.281563
128.189481
142.239361
141.388508
142.017691
143.464358
142.809706
142.649023
141.991039
131.246155
131.867189
130.309040
130.945378
132.650011
132.001828
131.740628
131.081484
137.973177
137.032169
138.642527
137.703938
140.784751
139.848386
141.421440
140.499148
110.624990
111.171190
110.132260
110.694810
112.043890
111.491450
111.557460
110.991820
114.855090
115.423900
116.341920
115.770590
127.868794
128.482324
126.768112
127.399340
129.340041
128.713749
128.255280
127.612363
145.816043
147.225789
146.415949
142.334882
141.756785
141.482698
140.906721
114.652400
115.583220
125.799400
124.944210
126.782356
125.883125
142.354492
142.938163
143.507572
142.632925
142.030571
129.663152
130.339226
128.618540
129.312514
131.209121
130.508387
130.200757
129.486311
140.737845
139.890215
141.180264
140.347484
150.533079
149.789046
151.081630
150.334211
111.961740
112.841600
112.361740
125.891590
126.466540
125.225280
127.468430
126.896460
126.207544
115.967370
115.337640
116.889520
116.220370
136.634586
135.763163
139.157997
139.729497
138.256887
138.827248
140.222797
139.623995
139.334263
138.736652
144.784516
145.372407
143.987613
144.573367
145.817346
145.208712
145.026117
144.419272
140.328604
139.468316
147.147090
147.783492
146.400142
147.032794
146.824040
115.050410
114.450440
149.059398
149.699546
148.306808
148.944152
150.215530
149.548231
149.465346
148.801989
136.455992
135.878058
135.511428
134.934795
145.507125
145.247956
144.666262
118.314800
118.909580
119.820420
119.217630
117.710350
118.609570
118.768790
119.353210
118.007720
120.304970
119.716590
119.510240
118.902150
141.772255
141.192760
140.883228
140.303918
142.448125
137.290404
136.418267
127.247722
126.123700
128.078216
126.956043
138.756165
139.389427
137.854263
138.489386
140.128952
139.272197
144.367657
144.963495
144.124630
140.494203
141.096979
141.612605
140.982726
140.758841
140.129518
111.323750
110.772720
126.812668
127.725085
134.352224
133.994010
133.408588
146.963415
147.630623
143.229573
146.233047
145.506400
146.596669
145.870333
131.941408
132.619755
130.980624
131.670161
145.588547
146.251598
144.783610
125.363762
124.462354
126.344261
125.347640
145.870169
125.306140
124.639250
126.314970
125.620155
144.604839
145.210677
145.788226
145.154474
136.580249
135.641658
137.219613
136.309737
138.127984
137.553041
137.187707
136.609724
145.122434
132.473007
133.063731
133.733752
133.112409
132.850333
132.217588
130.551906
129.492337
131.398026
144.361104
142.822429
143.404813
142.007802
142.589992
143.814126
143.009178
112.452460
113.017000
111.994990
112.562740
113.881910
113.314700
113.429460
112.861050
130.159915
129.515719
129.111784
128.453015
116.523590
117.077950
118.028930
117.471620
138.349751
137.497394
117.095510
117.677480
118.586380
118.001380
113.695880
113.228350
114.562760
114.088030
126.337520
126.953324
125.263465
125.898116
114.440370
115.008990
115.894000
115.318180
146.502858
147.167970
145.718926
146.383946
111.730000
111.258960
112.604560
112.123220
133.484516
132.531817
134.125325
133.199380
128.744921
129.330849
134.506492
135.085079
133.553302
134.133335
134.696291
134.091542
115.901270
115.440390
116.332040
120.964120
121.544530
122.543360
121.960310
127.779271
133.535205
132.866066
131.652236
131.063844
130.696511
130.105401
135.572209
134.964246
134.641591
134.029140
115.204310
116.134780
137.739717
138.404381
136.863513
137.531162
120.537540
121.501960
119.583060
126.532644
127.343961
145.005156
144.232031
114.704620
117.825970
117.110700
120.668740
121.261430
119.798400
120.411800
121.332580
121.924140
122.848370
122.252780
120.414130
120.730430
144.393157
143.810301
119.389150
120.301580
122.474385
114.151090
139.980866
139.401374
132.969388
132.016290
132.603666
133.140819
117.461890
112.188960
112.749420
112.293820
113.624390
113.062920
113.171050
141.999683
140.795840
139.940623
136.942764
137.577701
136.026046
136.662519
145.062548
120.941210
122.479510
121.899980
142.646554
143.275558
144.120815
143.967856
143.305210
114.875100
114.392300
114.953360
115.766200
115.827060