# vtk DataFile Version 2.0
Unstructured Grid Example
ASCII
DATASET UNSTRUCTURED_GRID
POINTS 1552 float
-2.423150 -7.019020 28.255200 
-2.422920 -7.019090 26.422300 
-2.424090 -7.017280 21.844100 
-2.418770 -7.017310 20.391200 
-2.430040 -7.014130 18.265600 
-2.443670 -7.010630 6.437010 
-2.433000 -7.012440 4.683780 
7.032330 -2.533130 8.603260 
7.033940 -2.528300 13.937900 
7.035470 -2.525000 18.250600 
7.037190 -2.521370 26.389100 
2.739450 6.942760 7.811380 
2.737210 6.943060 10.414300 
2.735140 6.943550 13.340500 
2.733450 6.944170 15.721100 
2.738330 6.947450 28.309200 
-7.009310 2.671600 -0.000006 
-2.399120 -7.023640 30.000000 
-2.410790 -7.017050 -0.000000 
7.044510 -2.520020 0.000000 
2.707470 6.939450 30.000000 
-2.435060 -7.016220 24.028400 
7.015920 -2.493620 30.000000 
-7.048060 2.599350 30.000000 
2.721930 6.935140 0.000010 
-2.408680 -7.017700 8.075020 
-7.040160 2.608160 1.999500 
-2.404750 -7.018420 14.024100 
-4.153710 9.067830 30.000000 
4.296670 -8.998970 30.000000 
-8.087960 5.851960 30.000000 
-1.648530 9.836220 0.000000 
-7.041130 2.606900 8.001190 
-7.656480 -6.393010 0.000000 
-7.043300 2.603590 14.001400 
-9.046760 -4.244380 0.000000 
-2.406360 -7.018020 12.028500 
9.945770 -0.723718 30.000000 
-0.604556 -9.972040 0.000000 
-5.749280 -8.149410 0.000000 
1.926900 -9.794260 0.000000 
-2.410400 -7.016880 2.022650 
9.079370 4.161370 0.000000 
-9.809920 -1.833820 0.000000 
-9.354580 3.460090 0.000000 
-7.040710 2.607760 6.000560 
7.045550 -2.515980 6.048080 
-4.107980 9.089830 0.000000 
-8.042070 5.909460 0.000000 
-6.279310 7.777130 0.000000 
-7.046110 2.600320 21.999700 
-7.044880 2.601510 18.000700 
-7.044180 2.602390 16.001200 
-7.047760 2.599490 27.998000 
-1.703150 9.827970 30.000000 
-6.296240 7.761400 30.000000 
-7.046740 2.599910 23.999000 
-9.030880 -4.284830 30.000000 
-9.811490 -1.827010 30.000000 
-7.645860 -6.406300 30.000000 
-0.620630 -9.972040 30.000000 
7.051240 -2.501580 28.028700 
-2.403430 -7.018840 16.021700 
1.898050 -9.798600 30.000000 
6.389910 -7.674520 30.000000 
9.383580 -3.386250 30.000000 
7.050600 -2.504000 22.038600 
8.133150 -5.795270 30.000000 
9.823380 1.774960 30.000000 
9.068430 4.189210 30.000000 
2.706590 6.939750 22.020200 
2.708720 6.939050 18.011200 
2.706610 6.939680 26.003200 
3.551520 9.340170 30.000000 
7.746610 6.279970 30.000000 
7.757030 6.266920 0.000000 
-9.943950 0.747858 0.000000 
2.721030 6.935530 2.008840 
3.611150 9.321780 0.000000 
2.713210 6.937470 11.984000 
9.942420 -0.768499 0.000000 
-9.373150 3.412730 30.000000 
9.825300 1.766480 0.000000 
6.400970 -7.664220 0.000000 
7.045010 -2.517670 4.031300 
8.139640 -5.787120 0.000000 
4.289950 -9.002210 0.000000 
7.046440 -2.512950 10.080900 
-7.047300 2.599660 25.998100 
-2.407510 -7.017860 10.039100 
7.049890 -2.504890 20.044300 
-9.944000 0.747200 30.000000 
5.947180 8.014500 0.000000 
0.848433 9.956800 30.000000 
0.936474 9.943540 0.000000 
-5.727880 -8.164020 30.000000 
5.903770 8.044080 30.000000 
-3.315510 -9.412980 0.000000 
-3.288370 -9.421350 30.000000 
9.372070 -3.415520 0.000000 
-7.026450 2.638070 12.001700 
7.048690 -2.507570 16.044700 
7.050980 -2.503180 24.038300 
2.706340 6.939760 24.017700 
2.719870 6.936030 4.014010 
-7.040380 2.608290 3.999780 
-7.041700 2.605940 10.001600 
-7.045480 2.600840 20.000500 
2.707400 6.939510 20.018600 
2.718280 6.936570 6.014120 
7.044670 -2.519060 2.017000 
7.046920 -2.511080 12.051800 
-9.042770 -4.235010 8.005190 
0.884832 9.952470 8.014590 
-7.642780 -6.409180 18.007100 
9.389790 -3.386690 26.035600 
-2.464570 0.884869 30.000000 
-6.289180 7.749450 28.001300 
-9.808090 -1.861260 19.996000 
9.953220 -0.745319 8.054730 
-4.095500 9.114460 4.004040 
-3.241970 7.202440 0.000000 
-3.283080 7.174270 30.000000 
-3.312770 -9.426850 8.060270 
-7.888960 -1.383280 30.000000 
9.952230 -0.713980 20.040000 
-2.578610 -3.226480 0.000000 
-9.375360 3.455350 19.994100 
9.963440 -0.737192 16.043800 
-6.281600 7.759900 22.004100 
-4.125580 9.101100 8.007310 
9.944640 -0.757342 4.031010 
-4.182250 0.046752 30.000000 
-1.685080 9.850780 2.003350 
9.089580 4.154660 8.041880 
5.950980 8.029840 14.013400 
7.787900 6.252660 6.032260 
0.874952 9.942290 28.013100 
4.312070 -9.014360 28.010900 
9.814450 1.796640 12.046500 
1.942990 -9.795540 22.029100 
3.274920 -2.630170 30.000000 
9.064160 4.169880 18.038100 
8.137670 -5.784150 26.028800 
-0.014579 -4.172800 30.000000 
-9.815960 -1.830430 9.998830 
-9.030710 -4.254260 14.001400 
0.886344 9.941910 13.998800 
9.085770 4.113820 6.037120 
9.825020 1.828960 10.050000 
-4.103750 9.089330 12.005900 
2.525100 -0.882501 0.000000 
-7.157260 -3.356320 30.000000 
9.961510 -0.740305 6.044010 
0.100831 4.159220 30.000000 
9.393380 -3.400270 2.015260 
-2.371980 5.319800 0.000000 
-9.036220 -4.245230 4.001770 
7.879160 1.332470 30.000000 
-1.694540 -0.810959 30.000000 
4.294090 -9.015110 24.025600 
-8.064050 5.889180 14.000900 
-3.186650 2.676290 0.000000 
8.135820 -5.802070 4.029670 
7.783370 6.263510 16.030700 
7.756280 6.271120 18.032600 
6.418750 -7.661640 18.038500 
-3.230470 2.626840 30.000000 
-9.375730 3.448800 21.993600 
9.077090 4.161270 10.043100 
-9.815960 -1.839330 1.995960 
4.309290 -9.007160 20.033200 
9.827740 1.782360 28.015700 
1.942610 -9.800980 20.032500 
4.197390 -0.070907 30.000000 
7.775620 6.258740 8.035340 
-9.812100 -1.845670 7.999100 
9.827180 1.765940 2.018530 
9.382210 -3.384730 18.046400 
6.419610 -7.634300 12.044900 
9.813570 1.796710 24.031800 
-4.149470 9.088300 28.003200 
-3.299680 -5.674480 30.000000 
-0.658783 -9.970570 18.036600 
7.767700 6.281250 14.030200 
7.775630 6.269900 20.033300 
7.763840 6.271810 22.032100 
7.775860 6.278930 28.015900 
2.704240 3.221980 0.000000 
9.829530 1.798010 18.040200 
-6.250710 7.795040 4.001340 
1.903230 -9.802630 28.011100 
0.868297 8.185660 30.000000 
-8.058290 5.903980 22.000100 
4.297430 -9.014680 10.042200 
-9.963270 0.745989 5.995040 
0.821764 -1.717470 30.000000 
-9.024150 -4.267610 27.996100 
-5.127820 6.106130 30.000000 
0.924718 2.449860 30.000000 
-1.692040 9.848940 8.010550 
-9.376110 3.459140 15.994900 
-7.658310 -6.416680 4.012180 
-9.375750 3.452770 1.994030 
3.545220 9.339310 18.016100 
9.079370 4.149250 14.040200 
3.413440 -7.123980 0.000000 
5.921860 8.041450 22.029400 
3.547070 9.329680 16.003300 
9.079680 4.165130 20.035100 
6.379930 -7.680930 20.036000 
-4.131990 0.098193 0.000000 
-4.048470 4.442360 0.000000 
-9.814770 -1.858870 25.993300 
-2.604350 -3.252380 30.000000 
-7.675930 -6.375020 6.017530 
-0.609321 5.999480 0.000000 
-1.706050 9.831670 6.009280 
-6.075210 -5.176140 0.000000 
-8.038670 5.921600 10.001200 
1.943110 -9.792540 26.019400 
0.055596 0.018257 0.000000 
-7.665070 -6.384230 12.009200 
9.965670 -0.738190 24.035000 
9.962750 -0.748408 2.016850 
-7.119540 -3.362940 0.000000 
-4.108730 9.091700 6.006270 
-1.738480 9.838070 22.011100 
3.536740 9.337340 13.995400 
-4.096480 9.112220 2.001640 
-9.814370 -1.839100 3.997080 
-4.139340 9.089210 26.005900 
1.928830 -9.793390 10.041400 
-6.273400 7.765400 20.003900 
-0.618437 -9.964960 14.032100 
9.826350 1.813660 22.034900 
-9.806820 -1.905710 27.994300 
2.517090 -5.263160 30.000000 
-9.814420 -1.830710 11.998200 
-0.674524 5.960720 30.000000 
6.406240 -7.671660 22.032700 
6.402750 -7.666210 14.042200 
1.427740 -7.855230 0.000000 
9.822800 1.825320 14.044400 
-1.693150 9.829020 18.007500 
-7.692080 -6.377960 14.006500 
-4.127200 9.099820 10.007100 
-6.288040 7.749500 26.002800 
9.064790 4.189840 26.025100 
7.190710 3.292850 30.000000 
-1.726030 9.836820 28.006000 
9.390580 -3.409910 4.031420 
-5.769130 -8.153050 22.019100 
6.024010 0.710813 0.000000 
-5.749690 -8.172100 16.017400 
8.135070 -5.800100 22.036600 
-6.269160 7.769450 10.004400 
0.965312 2.480650 0.000000 
0.874475 9.948340 4.010860 
5.965650 8.007250 6.026890 
-9.960530 0.731889 25.992000 
9.101260 4.127930 4.028970 
4.313720 -9.001360 22.029900 
-0.844430 -2.457030 0.000000 
7.217450 3.273060 0.000000 
9.081520 4.154620 2.017100 
9.958130 -0.731149 10.056700 
3.485340 1.593820 30.000000 
-9.802310 -1.883590 21.994300 
4.279940 -9.014540 18.035500 
-1.737680 9.842100 16.005100 
-4.146190 9.081220 22.007400 
0.797138 -5.967630 30.000000 
6.404160 -7.658120 4.027300 
-5.778230 -8.153250 2.014820 
9.825610 1.802800 26.025700 
4.289300 -9.006770 12.040700 
5.678520 -3.346280 0.000000 
-5.752590 -8.172960 20.024300 
-6.292560 7.770150 18.003700 
-8.046060 5.905820 18.000400 
9.817970 1.818180 6.041420 
9.061300 4.176080 24.030100 
7.789090 6.261200 24.029000 
-7.684340 -6.390740 10.013400 
-9.814410 -1.845780 13.997600 
-3.446880 -1.634150 30.000000 
-7.683090 -6.378200 28.000200 
1.915490 -9.804800 8.043700 
-5.235520 -2.461180 0.000000 
-7.670080 -6.406710 2.005440 
5.332290 2.422580 0.000000 
4.460660 4.059210 0.000000 
0.143937 4.183130 0.000000 
1.671430 -3.440080 0.000000 
3.288950 -2.607890 0.000000 
-9.811910 -1.851020 17.996800 
-9.962190 0.720098 15.995000 
-9.369310 3.442370 7.995360 
-1.273000 7.878240 30.000000 
6.396910 -7.672280 8.045120 
-5.265800 -2.498950 30.000000 
-2.427790 5.281300 30.000000 
0.856243 9.954000 20.013600 
-4.368930 -4.143470 30.000000 
8.145210 -5.783070 20.040000 
9.074730 4.175920 12.042000 
7.763470 6.271990 12.032100 
0.017596 -0.015274 30.000000 
1.933670 -9.802590 4.031450 
1.913130 -9.805440 2.015910 
4.309180 -9.013330 26.019400 
1.933680 -9.807920 24.025100 
0.852649 -1.690070 0.000000 
1.857290 4.833140 0.000000 
2.495030 -0.908667 30.000000 
-1.722080 9.828470 12.006000 
-9.027160 -4.261860 1.998770 
9.061470 4.184530 28.016000 
6.396740 -7.662260 2.014090 
-3.296690 -9.423760 2.023270 
6.393640 -7.672310 28.013000 
6.795090 -4.650960 0.000000 
-4.148180 9.093590 24.007800 
-6.269200 7.767170 16.003500 
-5.626390 3.402930 30.000000 
5.206330 -6.053800 30.000000 
-9.037960 -4.242350 10.004300 
6.390720 -7.679520 10.046900 
-1.708420 9.840640 10.009500 
1.929920 -9.786130 6.041830 
9.070310 4.174830 16.039600 
-6.271280 7.765800 14.003600 
4.298980 -9.024110 2.014200 
[...]
CELL_DATA 1260
SCALARS u float 1
LOOKUP_TABLE default
-21.934676
-36.667349
-19.112457
110.809371
102.526150
127.410725
119.098410
135.798171
119.224194
298.997240
291.072128
307.001816
314.848940
282.308760
298.209590
167.551193
150.834800
159.177797
-56.570487
-65.073254
-73.325270
53.392615
36.267270
39.008620
74.177950
83.028102
90.732435
-7.889928
-24.588270
-9.062040
7.678926
-16.235647
-0.727299
-6.052570
-20.746324
-3.201340
39.524999
22.801440
38.794160
55.528169
31.151537
47.153208
254.596530
279.139110
210.950730
186.560010
201.507550
228.531570
55.665270
77.701301
25.884840
28.715470
11.227741
41.857890
27.237875
44.695550
-93.306960
-90.125270
76.747000
59.229608
75.171353
92.697250
73.849590
89.791910
-81.235510
15.154368
23.553512
6.822710
287.976668
307.249058
-59.359456
-77.959716
-89.858080
-37.369000
-56.494600
-39.797140
-48.203143
97.185010
106.125320
-31.676143
-23.326679
-39.984720
-67.115726
-47.327167
-22.089531
9.926270
12.758660
-4.752201
68.489290
85.668152
102.287360
85.149110
71.202510
87.819210
31.144870
5.027380
140.615370
123.054607
139.049003
156.569260
137.723030
153.674570
105.774310
108.679370
91.113604
121.746870
107.072667
124.642790
185.656560
188.601350
171.106662
201.577410
187.012939
204.513000
301.220311
169.654520
155.075555
172.569420
133.685940
142.465190
156.747035
130.604940
164.548963
146.062893
247.524450
244.903460
262.087547
260.447090
263.032970
277.566640
71.759039
63.399172
55.051090
135.339300
152.017724
143.689989
236.777090
263.392790
196.615920
213.833210
229.794314
212.597520
199.297200
215.260450
321.188510
330.113700
250.721720
242.736669
258.732791
266.708290
234.050470
250.042280
210.414007
201.722290
218.022090
226.704283
218.344450
234.662370
274.707366
265.997390
282.649630
319.585991
330.829460
333.592010
177.974208
169.307500
185.038760
193.716083
185.888730
201.642500
109.654900
106.717200
90.163100
98.956632
95.973566
107.030935
138.352350
154.977050
171.075300
154.481860
147.059747
163.170066
130.623165
121.912770
138.514550
63.704528
83.138808
176.506325
-13.023870
12.772850
52.331040
69.545245
55.115920
39.215850
118.391258
101.247810
103.898170
133.878353
116.703610
119.358700
71.452600
88.154637
79.797896
180.796490
197.968878
183.483800
134.148240
148.491380
165.687419
181.971400
164.818880
151.182570
167.484470
228.927040
231.566620
246.104679
114.859197
122.682810
106.129380
57.879470
60.734550
43.252419
103.682358
86.992990
95.304179
135.170120
132.466460
149.690084
-33.253020
-42.103350
-26.110540
-17.206450
125.464114
141.463304
159.780594
143.758864
37.845660
34.735970
50.743750
53.827880
247.538080
231.619820
256.155421
272.145435
205.475387
213.265296
233.234279
225.720984
212.667830
238.731930
76.679234
62.602810
78.508040
92.645377
131.537406
112.156666
128.261350
147.596690
47.177890
63.101030
87.545780
71.666560
24.837030
45.989341
248.175680
269.374248
-41.465090
-29.527329
-13.682789
-25.637880
174.139196
163.470107
227.578225
208.219945
224.278220
243.581930
-51.421990
-45.931920
-25.069800
-31.534788
121.774580
96.495734
112.487987
137.730870
195.630593
176.265463
192.207595
211.594765
164.764840
180.711410
206.679120
190.775920
79.030230
94.999020
119.516000
103.501520
99.283685
79.861185
95.999165
115.437595
184.648919
193.206549
93.586907
154.325820
145.498830
161.541710
170.353320
202.807220
205.785140
221.780310
218.815500
141.820780
138.283360
157.876940
285.210230
303.687040
170.720000
195.038620
177.553130
163.599180
179.591336
193.534400
100.807511
122.907200
138.850700
116.706369
223.785470
231.121345
250.990084
243.804300
234.290660
225.518350
241.527480
250.313030
220.870210
205.021840
185.384415
192.162611
211.572762
204.201563
-3.057442
-1.285260
12.898687
14.708510
5.890980
21.888800
30.725680
173.227731
189.178565
207.499605
191.515101
129.428050
110.955650
126.889100
151.267450
135.396040
7.444165
14.888921
34.968810
27.271265
155.891180
252.868847
260.598040
279.608690
272.341242
55.304280
17.528520
37.219076
-65.282330
-74.132790
-58.131270
-49.311630
289.976191
300.343191
198.474405
218.559040
154.797710
163.238220
179.152420
73.751380
89.749610
116.760630
100.838560
-10.096069
-2.610110
9.849885
44.975470
28.835710
71.466540
218.297220
237.772030
253.803780
131.186530
115.270680
141.084510
157.033810
220.868840
240.902550
128.495297
153.717930
186.375000
-51.158799
106.934960
147.192810
305.353370
291.449675
84.878521
258.624775
279.315501
270.935011
173.877080
-19.087922
113.326190
183.671470
167.647420
83.272220
67.211460
93.091850
109.079170
273.435400
259.507994
275.503201
289.417910
263.168330
151.595920
172.291380
50.211538
68.845478
66.245391
202.343280
266.341010
269.850740
282.346670
285.863470
317.764180
314.240900
42.087872
48.763022
68.441920
62.653020
21.014650
36.963930
148.729611
289.142384
42.866500
26.897290
51.203850
-15.346395
-35.148345
0.660998
238.451550
126.437500
117.687870
226.223680
245.646930
265.711971
64.595121
80.518815
105.787920
-77.266740
-61.159540
-31.368959
-6.142660
223.560804
234.907270
250.971800
239.621375
209.519100
-27.926315
-6.917750
267.009220
282.964700
257.506540
172.981010
-38.763382
-30.171442
-17.923323
2.744390
124.684462
110.503870
140.701487
177.639800
-45.141530
65.703808
56.120376
109.473669
-67.740240
-72.165480
41.824590
57.790870
84.860020
68.882520
132.730438
-4.984480
2.286052
22.148467
-10.132200
-13.243840
2.760800
240.189284
-60.030532
215.219420
231.183110
253.202355
237.220881
222.719410
247.173750
20.915754
4.903761
148.828850
174.833360
18.263845
36.885805
52.841720
34.221950
195.903166
216.967150
28.885141
189.054880
99.297100
125.089180
-47.605919
183.267770
199.280400
221.252205
205.215204
18.715130
196.678730
298.317890
307.971350
66.707290
70.311420
86.220800
82.714600
47.086482
55.561012
76.498123
65.992078
22.250880
38.322110
199.685990
215.645910
29.405276
127.749459
111.833017
138.999760
155.023810
144.535052
160.537497
122.246110
-12.109939
84.129660
144.259920
286.397300
94.493200
108.622127
90.920890
167.245300
176.311353
19.112850
3.084830
-73.651030
58.861230
14.845800
19.924380
54.371450
132.804550
158.823030
301.820170
-29.234230
44.833171
114.637960
-11.054889
10.819290
88.837890
-19.565217
0.005720
60.718195
46.665570
25.818980
16.659298
35.161220
61.056960
77.088070
255.651861
189.819410
-43.201760
-21.264100
-5.235380
-27.070170
157.336990
-61.706910
142.836620
238.892940
151.688820
52.910420
123.015970
125.764360
-9.686820
2.285574
6.289950
269.175941
69.779450
85.813940
292.144100
312.655870
101.802910
98.718300
32.661747
169.680780
185.649390
119.720920
135.658740
314.984420
74.891130
175.665550
186.945150
171.052930
103.788840
-57.448350
102.222960
114.115478
130.191861
118.219000
9.834560
160.238736
87.668280
-49.487314
298.934940
82.219241
48.639941
-38.459334
287.606941
271.596225
-45.518460
98.078559
104.894510
120.932680
242.241411
252.598117
258.234125
268.569796
25.186300
32.094340
41.240610
48.148920
52.003440
46.960800
68.071400
63.041080
7.832440
23.835830
28.570850
44.538550
51.953919
58.982876
67.931882
74.951018
78.853176
71.494537
94.831453
87.475717
276.230850
284.481336
292.124530
213.860727
221.088092
229.765252
236.995679
240.553372
233.915160
256.470882
249.829475
186.770193
193.938451
202.678968
209.835705
206.680813
222.575687
96.745758
103.966667
112.759730
119.945353
116.473540
132.514010
99.908590
106.917611
115.881792
122.901029
126.811886
119.477815
142.814327
135.477171
93.336966
101.048123
109.254221
116.971466
135.907266
128.716721
-11.810356
4.209841
9.165830
125.692443
132.916495
141.566480
145.360349
161.250928
151.815935
191.027100
207.030450
55.508074
64.172690
75.337681
91.332069
84.109510
20.242129
28.599699
36.283158
44.596090
57.290870
125.131410
130.452260
141.103830
146.451860
152.388180
145.211190
168.416850
161.197530
51.884468
44.282700
67.814009
60.227650
82.995543
90.124723
98.967512
106.123167
110.771120
103.633740
126.750960
119.612847
274.155073
61.922336
69.696146
77.905078
85.669835
89.638669
82.134228
105.618430
98.119829
137.589197
153.579540
164.860888
157.174824
180.876221
173.173375
-33.509004
-17.494876
-14.226198
1.723592
84.232759
100.235745
105.326080
121.330160
185.513394
193.153490
201.444411
209.071050
212.894175
205.149439
228.831662
5.845591
13.360190
21.799007
29.314230
33.468120
25.803498
49.396480
41.771285
124.651757
132.316030
140.613416
148.277170
92.556782
108.521068
112.166220
128.170180
50.221539
57.754887
66.180786
73.704907
77.358594
70.108076
86.094539
146.303415
156.652972
162.323003
172.683049
165.553403
173.012810
181.471564
188.968570
68.230120
89.292310
79.098390
83.920267
90.931550
110.822732
103.479151
-6.238858
0.586835
9.775971
16.578161
19.983524
12.579061
35.985967
52.260523
73.249490
80.535917
96.597293
87.608523
94.744320
116.287540
108.646380
138.889850
146.075328
154.898582
162.068832
165.980365
158.814568
181.959366
174.787248
231.554106
238.681610
247.498641
254.616940
260.295080
196.009900
211.979590
50.988228
58.109682
67.001775
74.119593
78.730230
71.606666
56.627230
72.591570
77.785721
93.791710
244.278770
248.993020
265.027370
189.542393
196.899529
205.533607
209.215716
199.798081
225.223686
215.829719
35.886940
28.233240
207.879330
215.236556
235.114341
227.911440
232.886640
64.747574
84.453030
132.200911
148.172707
153.246200
169.248540
83.768347
76.173640
270.531830
276.313800
296.860350
18.263141
45.390413
38.141054
183.770098
193.196284
-19.242940
-13.864130
-3.261410
2.107820
6.974702
22.935146
65.351630
81.315460
85.082467
189.613055
197.376364
217.350254
79.177883
95.250750
98.174942
114.217267
136.996460
153.017970
50.531050
66.461910
69.092572
61.367446
71.859410
87.853360
92.574070
108.552790
88.556980
104.505010
109.794767
216.320960
232.304950
237.503679
253.475281
125.191144
144.647980
-44.102510
-51.739490
62.418271
78.320993
76.562040
82.023010
97.977430
102.802834
96.415719
118.784722
112.412942
-24.006770
-19.725980
-8.087370
-3.757370
18.042180
12.648840
200.324660
221.525405
189.182736
208.626315
231.831305
224.603234
194.286905
210.293470
164.109617
172.384750
180.005637
188.273826
192.007040
185.197020
201.072510
97.260260
-22.808038
-29.917860
102.045534
118.000690
164.270820
16.052630
23.471631
43.281390
35.957280
12.199750
33.998320
49.983920
244.739409
273.212139
263.735869
60.590846
80.159850
222.975660
130.265744
123.328013
130.936708
139.332794
146.936747
151.613264
143.271674
167.604527
159.265767
280.957180
105.642247
128.424368
121.614303
166.679497
173.717627
182.597850
226.294667
100.239910
-22.325308
-31.424029
-35.346320
-9.045231
-15.472393
161.763600
168.766959
-39.993320
120.431950
59.304592
228.222840
236.661437
-35.738460
-28.126805
-6.832228
129.408834
242.734772
92.601348
241.234476
257.224325
225.001600
124.508650
144.380408
137.529694
192.589762
212.365750
228.438240
168.958290
39.859030
111.091470
127.113660
-3.484288
3.943407
112.530200
135.580477
142.706850
149.608048
157.084000
177.192740
169.559721
95.086310
34.237119
54.123135
204.950410
161.409173
177.321899
14.516347
3.910222
30.449545
19.855526
63.150156
82.106153
116.234027
124.510070
140.502095
144.152890
137.296660
160.102700
98.522240
114.451520
136.363440
178.322400
188.649361
174.666840
180.343690
190.639070
196.326760
200.833190
196.189130
216.839480
212.190690
46.451958
49.628503
41.114863
65.618669
57.113669
-56.068630
109.161940
129.222580
30.877000
62.883123
54.855368
48.483361
70.827791
64.450554
40.747290
61.911159
53.166540
173.516527
195.671226
157.801752
178.021094
11.035922
30.895693
43.021309
210.335810
204.664585
34.614700
45.252280
148.112220
143.099450
164.092290
159.083430
-1.959199
14.016984
27.044438
170.000221
176.570608
186.013577
206.665940
157.503484
184.371190
179.764776
199.341555
223.222626
239.170341
202.004430
46.901268
-15.347412
81.615111
97.487698
103.830620
108.190610
119.804400
124.096330
129.937380
145.855600
140.465770
244.433590
194.321740
76.576026
96.175330
115.661300
131.589810
113.432785
55.850330
148.479220
158.719680
164.403690
184.871690
180.251820
111.285997
207.258978
100.447490
175.045840
132.117270
156.463820
176.083330
131.868085
147.871605
37.767124
53.727538
61.221310
151.473050
167.451156
178.970152
171.336969
194.939557
187.323990
156.391830
160.323157
153.500821
176.239968
169.453130
107.311801
100.100290
135.712240
41.678978
57.670445
116.112260
-1.471658
17.673414
127.262277
-12.075329
9.139394
263.415389
255.080959
167.751894
177.172607
145.475314
162.394460
178.324220
122.079405
160.425136
220.702792
73.658001
80.442653
32.526080
38.885591
222.711620
226.827432
219.215451
247.799442
73.103753
66.025090
150.752494
170.851507
163.834160
139.950830
60.551920
89.622587
39.494888
144.422142
82.488870
190.744746
197.918585
217.958519
210.880862
113.969880
121.030973
136.971314
141.847754
134.798550
114.930168
128.419398
99.716795
92.185070
81.584314
97.570761
93.170860
113.235150
152.877913
93.882767
86.821796
180.050190
29.982029
45.940921
77.192900
147.521202
260.377990
105.056261
125.849324
18.699140
33.633218
113.568351
117.634523
133.624461
191.261594
126.196923
142.214745
101.646531
133.991492
138.054140
154.015904
32.608031
48.594417
109.860551
130.076587
89.077451
16.637099
183.411400
80.731861
121.605185
148.869654
141.178951
0.683222
203.278087
64.555617
72.077530
88.007692
155.332736
175.246063
114.097119
149.989439
25.110588
25.719826
183.610543
94.301904
199.631384
215.612898
158.237324
162.952860
110.252312
160.589591
129.529723
