# vtk DataFile Version 2.0
Unstructured Grid Example
ASCII
DATASET UNSTRUCTURED_GRID
POINTS 1470 float
0.190141 -19.670700 30.000000 
-17.130400 9.670670 30.000000 
17.130400 9.670670 30.000000 
17.130400 9.670670 -30.000000 
-0.190141 -19.670700 -30.000000 
-17.130400 9.670670 -30.000000 
-0.738117 -0.118856 30.000000 
-0.695008 -0.197843 17.882200 
-0.703479 -0.202049 -24.170600 
-0.695025 -0.214988 -27.315100 
-0.731763 -0.155867 -30.000000 
14.597700 5.284070 30.000000 
-0.739157 -0.137123 11.988800 
-2.430030 -15.791100 -30.000000 
-8.242610 10.000000 30.000000 
6.510970 -8.722660 -30.000000 
5.508470 10.000000 -30.000000 
-17.320500 10.000000 17.994800 
-9.437640 -3.653510 30.000000 
10.410000 -1.969370 30.000000 
2.464780 -15.730900 30.000000 
17.320500 10.000000 8.995330 
0.000000 -20.000000 -9.002350 
17.320500 10.000000 2.995120 
-17.320500 10.000000 26.975200 
0.000000 -20.000000 -15.001100 
0.000000 -20.000000 -12.001700 
-4.302670 -12.547600 -30.000000 
-6.016510 -9.579100 -30.000000 
-0.732388 -0.156422 -20.998800 
-7.689780 -6.680910 -30.000000 
-0.739214 -0.143607 5.992300 
-17.320500 10.000000 11.993300 
-11.129600 -0.722953 -30.000000 
-9.387170 -3.740940 -30.000000 
-1.184890 10.000000 -30.000000 
-12.957700 2.443460 -30.000000 
-4.629820 10.000000 -30.000000 
-8.238570 10.000000 -30.000000 
-12.231400 10.000000 -30.000000 
-17.320500 10.000000 -12.001400 
-17.320500 10.000000 -26.978200 
-17.320500 10.000000 -24.004000 
-14.947600 5.890050 -30.000000 
-17.320500 10.000000 -18.001900 
-17.320500 10.000000 8.993420 
-17.320500 10.000000 -21.003100 
-17.320500 10.000000 -15.001400 
-17.320500 10.000000 -6.002440 
-17.320500 10.000000 -9.001750 
-17.320500 10.000000 -3.003280 
-17.320500 10.000000 2.994820 
4.549220 -12.120500 -30.000000 
-0.733569 -0.156550 -14.999500 
0.000000 -20.000000 -20.998200 
-0.738768 -0.151823 -3.004290 
-0.739171 -0.146636 2.993520 
-0.739068 -0.149461 -0.005407 
-12.251800 10.000000 30.000000 
-6.036350 -9.544740 30.000000 
-17.320500 10.000000 -0.004225 
-17.320500 10.000000 5.993990 
-17.320500 10.000000 20.996600 
-17.320500 10.000000 14.993700 
-14.915300 5.834130 30.000000 
-11.176700 -0.641345 30.000000 
-17.320500 10.000000 23.996800 
12.434500 1.537220 30.000000 
-4.643740 10.000000 30.000000 
-1.197690 10.000000 30.000000 
9.000900 10.000000 30.000000 
-0.737739 -0.124562 20.981300 
2.185060 10.000000 30.000000 
-0.725693 -0.139013 26.941200 
-12.989900 2.499110 30.000000 
-2.413330 -15.820000 30.000000 
-4.323760 -12.511100 30.000000 
0.000000 -20.000000 20.996000 
-7.728880 -6.613180 30.000000 
6.511700 -8.721410 30.000000 
4.554240 -12.111800 30.000000 
0.000000 -20.000000 26.956600 
0.000000 -20.000000 23.992600 
0.000000 -20.000000 11.994200 
0.000000 -20.000000 17.995500 
0.000000 -20.000000 14.994700 
0.000000 -20.000000 8.994160 
0.000000 -20.000000 2.994910 
0.000000 -20.000000 5.994440 
8.448570 -5.366650 30.000000 
17.320500 10.000000 26.950200 
5.545330 10.000000 30.000000 
17.320500 10.000000 20.999000 
12.779000 10.000000 30.000000 
17.320500 10.000000 23.996500 
17.320500 10.000000 17.998000 
17.320500 10.000000 14.996800 
17.320500 10.000000 11.995900 
17.320500 10.000000 5.995110 
17.320500 10.000000 -0.004736 
17.320500 10.000000 -3.004580 
17.320500 10.000000 -6.004460 
17.320500 10.000000 -21.006700 
17.320500 10.000000 -12.004700 
17.320500 10.000000 -15.005100 
17.320500 10.000000 -9.004450 
17.320500 10.000000 -18.005900 
17.320500 10.000000 -26.959600 
2.181700 10.000000 -30.000000 
14.590100 5.270910 -30.000000 
12.777500 10.000000 -30.000000 
17.320500 10.000000 -24.004800 
8.945470 10.000000 -30.000000 
10.441600 -1.914660 -30.000000 
12.448700 1.561890 -30.000000 
0.000000 -20.000000 -0.004495 
8.469610 -5.330210 -30.000000 
2.462710 -15.734500 -30.000000 
0.000000 -20.000000 -18.000200 
0.000000 -20.000000 -26.950400 
0.000000 -20.000000 -23.991200 
0.000000 -20.000000 -3.003770 
0.000000 -20.000000 -6.003040 
-0.732695 -0.156612 -17.998400 
-0.735024 -0.155938 -12.000800 
-0.728974 -0.167072 -9.002020 
-0.737896 -0.153698 -6.003160 
-0.739282 -0.140634 8.990830 
-0.738776 -0.133104 14.984600 
-0.737713 -0.121315 23.977200 
-12.347500 10.000000 11.993100 
12.831800 10.000000 17.997100 
-7.189370 -2.600390 -30.000000 
-1.198720 10.000000 14.990000 
-4.640200 10.000000 -26.996100 
10.434500 -1.926840 17.992500 
12.776400 10.000000 -24.003000 
-2.358760 -15.914500 2.994780 
0.619370 -4.264110 30.000000 
2.190840 10.000000 -0.004333 
-9.435980 -3.656400 14.987800 
-12.992400 2.503550 -0.005132 
-8.003810 7.121290 30.000000 
14.614500 5.313080 -15.004700 
-12.333800 10.000000 26.991500 
-8.366960 10.000000 -9.001160 
-1.203040 10.000000 17.989000 
-1.236610 10.000000 -14.998300 
-4.287500 -12.573800 -20.998800 
8.430020 6.778230 30.000000 
2.548720 -5.832840 -30.000000 
9.047560 10.000000 -15.002900 
8.341100 -0.711711 -30.000000 
4.537640 -12.140600 20.994900 
-14.953200 5.899660 5.993390 
2.203890 10.000000 -3.003390 
-4.299970 -12.552200 8.992900 
-8.336790 10.000000 -0.003992 
10.447000 -1.905220 2.994640 
11.634300 6.318410 -30.000000 
4.528790 -12.155900 14.993800 
5.230700 7.099790 30.000000 
-2.409710 -15.826200 -26.997200 
5.568000 10.000000 -9.002330 
-4.639470 10.000000 -23.995100 
6.495950 -8.748690 14.992700 
14.623500 5.328720 -27.002100 
12.470200 1.598960 11.993700 
-12.332700 10.000000 -18.001100 
-8.357230 10.000000 -3.003010 
-1.204950 10.000000 26.992700 
-12.322700 10.000000 -21.001800 
-11.155200 -0.678568 -23.994100 
-7.714600 -6.637910 -3.004040 
0.394477 -8.422900 30.000000 
-14.953000 5.899350 17.992800 
-9.425330 -3.674850 -9.001570 
-7.713620 -6.639630 2.993570 
-11.173000 -0.647759 -12.000200 
6.500320 -8.741110 -23.997600 
10.429500 -1.935520 20.992900 
-6.022850 -9.568110 17.989400 
12.461100 1.583300 -24.001900 
-1.486600 -6.339630 -30.000000 
-2.359410 -15.913400 -6.002920 
-4.289370 -12.570600 -15.000100 
-11.170900 -0.651426 -9.001630 
-12.327900 10.000000 2.994970 
2.441210 -15.771700 -0.004098 
9.060060 10.000000 -24.000500 
-12.345100 10.000000 -24.001800 
4.615400 4.153550 30.000000 
2.029300 7.314510 30.000000 
2.189310 10.000000 8.992690 
-14.958200 5.908410 14.992200 
5.542930 10.000000 -26.997900 
-4.307670 -12.538900 5.993600 
-1.198700 10.000000 20.988700 
4.535470 -12.144400 -15.000000 
-1.216840 10.000000 -17.996800 
-12.391600 10.000000 -9.001670 
-12.310800 10.000000 -15.000900 
6.492030 -8.755470 -12.000500 
2.203270 10.000000 26.993400 
12.839400 10.000000 -3.004260 
6.494870 -8.750570 -20.998000 
-7.230190 -2.537720 30.000000 
0.154519 -13.413200 30.000000 
4.502520 -2.904720 -30.000000 
-1.831470 -10.733600 -30.000000 
-14.968600 5.926330 8.992640 
14.627400 5.335440 -12.004400 
-1.219220 10.000000 -9.000860 
-7.717660 -6.632620 -6.002830 
-11.548400 6.750910 -30.000000 
10.434700 -1.926620 14.992500 
12.825900 10.000000 -12.004100 
14.649300 5.373460 23.998600 
-4.663820 10.000000 -20.995800 
7.382580 3.542960 30.000000 
10.442800 -1.912590 -23.999300 
-4.728560 10.000000 -3.002870 
-14.952200 5.897890 20.993900 
6.500160 -8.741390 -3.003120 
-14.950100 5.894370 -21.000100 
12.764200 10.000000 -26.997900 
2.418490 -15.811100 2.995280 
4.475590 -7.325840 30.000000 
12.454300 1.571470 -18.002500 
2.208110 10.000000 20.989700 
-8.386070 10.000000 -6.002060 
0.168388 -13.409500 -30.000000 
-15.000100 5.980900 -3.003710 
14.650300 5.375010 20.997900 
-6.024910 -9.564560 5.992940 
0.408135 -8.439330 -30.000000 
-4.677270 10.000000 14.990400 
4.518300 -12.174100 5.994630 
12.482500 1.620350 8.993800 
2.511720 -5.802330 30.000000 
11.617300 6.281290 30.000000 
5.566850 10.000000 14.992300 
-4.280080 -12.586700 -23.998700 
12.463900 1.588170 23.996500 
-1.186740 4.806820 30.000000 
-11.144600 -0.696903 -26.994800 
12.442700 1.551380 -9.003380 
4.537120 -12.141500 -23.998800 
5.555260 10.000000 11.992800 
10.442200 -1.913520 -26.999400 
9.060990 10.000000 -9.003220 
-12.334500 10.000000 20.994500 
12.824100 10.000000 23.997400 
2.423600 -15.802200 8.994450 
8.460780 -5.345500 5.994210 
-12.359100 10.000000 -3.003220 
14.627600 5.335660 -24.004700 
12.833300 10.000000 -15.004500 
-11.171600 -0.650150 -14.998800 
-14.977300 5.941470 -18.000700 
12.434400 1.537010 -12.003000 
9.034770 10.000000 2.995120 
-4.298340 -12.555000 20.992400 
9.002510 10.000000 11.994100 
12.456100 1.574550 17.994200 
6.485720 -8.766410 5.994450 
14.653300 5.380250 2.994450 
-12.287100 10.000000 -27.001200 
2.433450 -15.785100 -23.998200 
5.543060 10.000000 5.994130 
8.457710 -5.350820 17.991800 
-11.186600 -0.624202 -3.004110 
-8.757480 0.444695 30.000000 
-6.008080 -9.593700 -26.997000 
10.437400 -1.921870 -18.000300 
-9.437310 -3.654080 17.986600 
6.506500 -8.730400 23.994300 
8.458410 -5.349610 8.993420 
-12.993900 2.506110 -3.003990 
2.451860 -15.753300 -12.001300 
10.417800 -1.955780 -15.000900 
-4.711270 10.000000 -11.999600 
12.843200 10.000000 14.996100 
-12.385900 10.000000 14.993100 
-7.714230 -6.638570 -0.005239 
-11.193400 -0.612577 26.992400 
-2.408600 -15.828200 20.995100 
-11.194600 -0.610330 23.988800 
-6.011550 -9.587700 -23.996400 
8.457110 -5.351860 -14.999900 
-13.020000 2.551220 14.990200 
-3.721100 -8.056700 30.000000 
9.049150 10.000000 23.996200 
-1.847940 -10.710900 30.000000 
-2.405170 -15.834100 -9.002170 
10.427600 -1.938840 -3.003840 
12.857300 10.000000 -0.004528 
-4.203000 4.631010 30.000000 
-2.375650 -15.885200 8.993790 
-11.191500 -0.615732 17.987700 
-9.412390 -3.697270 -14.998600 
-11.171900 -0.649644 -17.997100 
-4.296300 -12.558600 26.995800 
-4.283930 -12.580000 11.992400 
-12.340400 10.000000 -12.001100 
-7.686450 -6.686680 -26.994800 
5.554090 10.000000 2.994910 
-6.028420 -9.558470 20.989200 
-2.395410 -15.851000 -3.003710 
4.524220 -12.163800 -0.003966 
9.022890 10.000000 26.997400 
9.062760 10.000000 -12.003100 
-8.329140 10.000000 -20.998100 
2.439090 -15.775400 -15.000700 
-6.022340 -9.569000 26.993300 
9.011130 10.000000 8.994350 
-8.308650 10.000000 17.991400 
[...]
CELL_DATA 1120
SCALARS u float 1
LOOKUP_TABLE default
98.889730
180.845240
-52.605520
-357.273224
-274.905850
403.236590
115.495120
139.458789
138.957687
162.971914
146.291393
-220.948921
-196.476285
-197.486081
-173.148256
122.260882
-189.855567
-214.267051
211.320644
235.064851
218.235924
-238.154526
-221.364711
-244.837994
357.087010
74.376948
67.660372
91.168188
98.344048
115.119870
91.628548
-349.796613
245.818690
215.459150
-227.030040
-269.360450
-103.945150
-129.322340
84.981200
108.967140
131.767830
142.000113
270.848829
313.444419
143.635309
236.231270
260.145370
-213.590098
-189.580602
188.283843
212.236650
156.900850
-261.576421
-237.615777
-341.610580
-333.315910
-148.884814
-172.213684
-165.596507
-324.370680
19.726601
43.159222
67.183744
43.693796
26.494491
50.465435
36.918730
60.917100
-314.216669
-302.850469
-155.060230
-181.823080
-290.071010
-210.000320
-240.329310
-155.020070
-131.077150
-250.909790
-227.031890
-203.002370
-179.030000
12.907890
-107.113840
-83.057830
-59.032891
-35.041651
-11.068070
-312.246883
-148.287574
-124.803744
-100.729642
-124.324845
-141.611576
-117.562304
-309.538091
-285.571437
-52.281072
-28.823474
-4.885064
-28.326444
-45.499173
-21.549440
2.453344
-4.293834
19.125936
114.428920
122.763220
132.890740
165.888960
153.375223
274.092560
301.026560
377.801750
352.195430
187.110140
163.537272
170.382243
326.838920
194.251846
187.394948
210.974358
106.132019
26.394233
50.424121
186.603660
228.742800
74.353352
-45.660187
-21.557923
2.386448
-69.799327
-117.772327
-93.839930
379.997400
332.239280
356.241880
308.217130
284.133660
164.297343
140.105990
115.907180
-4.095250
20.111720
68.059630
91.954290
44.183150
-28.057240
-98.719860
-78.199970
-184.622057
-142.121897
-141.581338
-333.469592
-165.614921
-93.495022
-76.729765
-100.300909
-69.476163
-52.770299
-76.271522
71.198100
95.188880
306.077670
282.059450
-287.219133
-297.212080
180.927860
204.973380
178.019620
154.055270
-157.805080
-186.050620
198.959374
175.007668
217.716468
241.611534
-30.079870
-54.210620
-109.764668
-85.715330
218.660462
214.136552
182.335672
182.252180
86.888524
110.763264
84.937472
60.998642
35.667290
11.671900
21.936716
45.934507
-62.658902
-86.662894
-74.093240
-50.090920
226.401550
197.114000
21.174880
-2.593190
191.276520
-66.707740
-42.710010
-73.040990
-97.005270
228.966070
201.971650
-59.131530
-35.172810
-62.212960
-86.166100
-277.739797
-301.718291
-293.675680
-269.620830
341.577420
322.509220
-237.181571
-232.260830
-272.419458
-273.677879
18.319440
42.121990
16.424730
-7.545570
-191.881592
-152.510792
114.516480
138.552530
95.658751
71.574773
-2.055640
-26.072360
62.899510
37.015180
-37.758447
-61.725627
-53.515080
-29.536310
5.436833
29.493393
-0.862103
-24.894713
79.156675
55.063231
97.768656
121.823255
-114.325210
66.362770
90.524980
47.605148
23.561157
301.831560
-325.814672
40.365880
64.232500
38.901010
14.920030
-133.857710
-162.165400
108.612430
132.673000
-74.628220
193.864692
169.846506
213.572500
237.560330
-168.722480
-144.824000
-18.666360
-49.025980
277.019410
249.987270
-192.665330
-266.142161
-290.172060
-278.798380
-254.757471
-117.302528
-141.261680
-132.218000
-108.252699
183.486578
147.504438
144.135097
93.921050
69.978310
-156.249530
-180.296720
-170.079165
-146.053149
-69.191200
-93.217758
-84.262759
-60.262720
-194.097705
-182.666435
-158.722315
-203.108180
-179.238620
-221.501800
-245.457840
222.951233
265.655203
42.289300
18.345950
26.644250
50.664760
-94.128802
-118.105561
-50.693920
-273.549421
-308.474078
-303.908000
-181.784542
-157.799831
-229.862157
-253.762641
-245.621520
-221.667860
-134.703469
23.134100
-96.421451
-72.531990
-55.739730
-79.846960
-216.519790
290.068585
275.080470
279.184590
158.627870
182.684970
156.895150
132.869010
46.002410
-105.253200
-77.401170
252.975820
225.973690
-173.537020
-149.573520
-192.445637
-216.356671
-83.051310
-110.007850
-120.947450
-125.536530
-107.373690
-83.384300
302.914030
138.109454
113.908560
-155.354640
-197.510730
158.811050
168.897575
-200.435075
-311.783111
21.980770
45.130510
-11.098600
12.987560
-14.213000
-38.238380
-165.210840
-258.965870
151.046812
65.957630
333.382200
309.567430
-138.336170
303.108374
-136.796802
-160.700011
9.902220
33.936819
117.955940
-53.609555
-77.538290
-35.390870
-11.358862
-218.095050
-242.108620
-48.652440
223.483150
-46.376466
-70.198946
-26.583960
254.834360
278.890050
-98.078650
285.499740
-45.263800
149.634270
125.641320
-5.656740
18.291820
-24.687467
145.840387
189.627600
232.211600
256.275640
230.834740
206.768560
-317.668290
289.579697
257.191990
253.881930
234.941430
25.485134
1.427537
69.175530
-264.350381
-288.347682
208.095810
89.800980
143.240170
167.179660
353.985640
330.089250
-0.569887
60.630190
36.624340
103.137207
-218.078264
-206.682904
-194.101010
-22.569594
162.083954
186.041380
160.166110
136.200180
58.062141
34.133593
66.258350
233.802410
257.875410
261.492640
165.692330
141.678097
184.092600
134.653650
156.703590
-98.025301
-122.026172
-110.669232
181.961885
-309.338410
-89.023546
-112.902376
59.727170
69.945400
162.562130
180.688150
204.710230
84.622020
127.049496
-168.391098
-65.098954
-90.660810
119.277670
117.959083
129.364053
93.942873
105.385143
-285.326790
-131.352940
57.358897
33.387666
152.102820
328.331650
304.346010
-205.859448
30.941936
6.878106
49.475826
73.587091
209.306610
81.370660
-204.269120
-228.247320
-242.090860
-230.728970
82.021162
90.293640
-13.758303
-5.577750
-300.337490
74.691980
-133.739009
-29.593535
98.700260
209.946720
173.582950
-21.261700
-240.313707
77.562820
101.620470
47.164960
197.619180
83.734330
-122.121740
108.863370
42.293390
-266.059110
-33.150000
-9.133550
9.385099
107.716920
81.950860
105.952390
53.525220
-81.179140
-57.120280
-107.009190
246.888787
245.871250
119.625542
221.684920
-274.307953
-252.261590
-276.309050
117.504977
-2.038821
-26.027346
-14.620146
-202.304110
-229.687030
263.583044
-133.642410
-237.260320
-213.294110
88.239670
2.706370
-189.265740
141.959180
-144.336542
-120.384721
-154.491270
-177.151180
-173.511320
-197.588550
-5.730520
-114.508110
-101.435798
-221.319780
-261.267983
-246.885620
10.180998
-270.362823
-17.128846
-170.045740
280.260920
57.944089
-146.084350
-261.271400
-101.509450
-59.373940
12.648218
-36.235060
-50.061445
-241.683559
-210.057778
112.276070
-199.147330
-125.596828
-149.571920
-41.124883
185.472043
-131.009830
-165.847125
-181.142160
-12.254130
-74.065859
93.300120
129.992420
255.246595
-38.645865
194.714453
-31.552010
-176.500278
-152.444166
-141.822698
-117.697706
-161.965708
-186.069280
-132.963480
-157.061550
-181.729570
-157.792000
-186.980690
-210.998780
77.116780
101.117830
279.093074
317.606490
-8.710237
15.286048
29.643100
53.547230
2.173194
-21.637754
34.507670
10.676590
-47.648890
-23.697467
-164.394434
-140.370997
-159.791340
-135.765910
24.336423
48.273724
27.625156
51.522946
-112.544500
-136.555230
-72.293868
-96.227104
135.464052
111.490875
175.483570
151.498500
-263.654131
-239.623205
-260.496760
-236.487788
39.457514
63.455118
74.249708
98.262828
54.148570
30.094996
83.211750
59.159846
128.010290
134.726390
-205.690030
-234.990360
-71.053558
-47.084969
-58.090988
-34.110609
-106.421060
-82.394900
-109.858700
-133.829600
159.404476
199.451520
158.113926
194.588130
120.031048
254.983506
293.588040
266.153907
242.014633
298.574290
274.475900
-128.515859
-90.387570
103.550490
127.554580
143.752683
167.776790
122.770589
98.876442
159.382022
135.498071
-80.529945
-56.685404
-42.067950
-18.039160
-69.643158
-93.599759
-37.265870
-61.309370
-34.325300
-10.184710
-37.814250
-61.875570
-198.157500
-222.148039
-189.098660
-213.105859
-119.073686
-95.044223
-106.168406
-82.098793
-40.577120
-64.522700
-0.312872
-24.247982
-160.527460
-165.114047
-141.219826
-176.542928
-200.528408
-177.719494
-201.659325
-184.380230
-120.087825
-144.023618
245.544680
269.574700
250.393840
226.402140
38.359827
62.413478
38.631847
62.602692
3.632770
32.190460
8.254340
146.832102
170.734220
161.238770
185.214520
144.819240
120.838317
157.887840
133.913807
72.868458
96.903796
85.913198
109.938726
-250.292889
-226.258760
-163.019190
-139.044850
-78.080468
-54.128270
-68.962718
-44.987611
-81.091012
-105.038730
-5.004396
18.955014
13.854484
37.755254
-6.697389
-30.679139
10.204175
-13.778925
134.159318
110.256318
170.602546
146.642693
56.099280
80.083080
62.794850
86.838200
123.374086
77.565450
58.514580
-165.192540
-141.101693
-150.880180
-126.781370
-167.174646
-191.208260
-154.150666
-178.199850
183.220323
159.221222
221.594250
197.596370
-143.118010
-130.192220
207.144760
104.032010
110.795120
72.145298
-167.945329
-104.481558
-57.612689
-33.629697
-57.335164
-33.324288
-68.254590
-92.410046
-63.706673
-87.797173
98.903093
122.937145
113.260760
137.266410
166.160095
190.106092
158.269090
134.283026
14.918430
38.791310
24.917733
48.839690
-85.478660
-82.269890
-106.280660
-175.030030
173.103290
178.263990
202.294270
149.065930
-246.279900
-237.206490
-273.167220
-263.210029
-225.347159
-201.372137
-231.885590
-255.859660
-225.153500
-249.128750
-239.187820
42.987040
66.968400
61.752420
85.763200
41.389020
17.338710
58.322260
34.262380
-222.864470
-198.868080
-108.896480
-127.036260
-151.052660
-105.061240
-129.034570
85.741173
109.671160
86.947570
63.079118
-16.563402
23.694364
-21.238946
-45.260086
15.433740
-8.639188
-48.244257
-32.754158
-121.538220
-97.540450
-89.716261
-65.790847
39.442650
15.436270
79.519580
55.499360
5.754310
-85.877400
-91.123270
-115.068390
-125.214030
-101.134680
231.085600
255.158000
229.790560
205.781950
125.053240
37.976453
61.921560
-109.586720
-81.667986
-81.372506
-116.427000
-111.815500
-128.485114
-104.494467
-129.627317
-105.673236
-143.663469
-167.756572
50.950474
74.856138
65.332710
89.256910
-81.030750
-56.979980
96.086213
215.646626
191.622579
231.020979
-8.557870
-32.545061
31.457410
7.463588
130.301390
154.255120
183.056260
207.059820
181.779900
157.817930
-215.179553
-53.050680
-29.012650
-54.693790
-78.760850
-92.963863
35.101006
61.797513
41.160301
17.191841
39.152908
-67.109160
-117.233769
-80.463214
-104.383138
-78.721030
-54.705200
-77.043560
0.958177
13.979377
179.002410
203.035110
205.710410
229.722430
185.102920
161.068890
-45.629324
-13.264500
-60.608040
-84.764430
-34.101800
-58.177520
-25.566438
-1.550516
-30.113050
17.875032
41.828514
27.050252
-9.056310
137.611162
161.522240
-202.240553
-56.596657
-71.670522
-95.717839
-208.277070
-213.138673
-248.464956
-249.689789
-215.637009
90.845990
109.750060
82.348570
-174.276630
-150.208313
-177.135300
-201.189450
-197.265410
-178.252450
-113.749368
-33.120200
-23.080952
-169.388564
-145.475444
-177.496976
-44.215410
-130.351630
-153.038530
-66.327150
-191.755767
-212.455718
-188.402650
-9.340602
14.655225
-6.123571
-15.771630
-39.711660
154.518590
178.550500
157.693140
133.670980
-88.514930
3.042219
29.100970
53.138710
-9.611332
37.762250
13.771390
253.837860
277.934360
106.329860
-93.194273
-56.482974
-43.064419
-19.048609
63.537756
74.856667
-10.133380
87.569786
251.161160
227.158260
-32.958230
-58.357740
-80.566200
-119.729391
134.932800
158.964410
133.831360
-152.502560
-153.599899
50.822615
46.476746
70.453371
14.408945
119.663472
95.692006
15.093310
-126.069214
-116.998534
71.717273
47.724223
78.155081
107.234360
89.129550
65.105400
-36.708400
149.937778
173.939146
87.291074
111.192423
125.865620
149.814440
130.522890
106.536820
207.330873
183.279545
-217.626523
-249.519483
-189.087039
-128.301849
-193.487377
-137.781647
-69.220249
-32.608236
111.484426
170.136451
146.298896
-149.233690
-130.365900
-174.881200
-20.989311
-102.910240
101.776520
82.602720
26.168572
50.262634
11.036410
-173.288140
-154.297390
-207.915230
113.715595
89.763423
75.453825
-10.085982
5.020840
0.278663
-30.801670
-153.082380
-57.108182
135.178426
173.674870
122.245819
239.655924
231.366727
-129.370933
-105.375309
-224.464200
86.552149
110.412203
-20.330760
-153.429829
-183.845790
2.762280
26.777548
22.480368
209.139330
233.123210
210.874790
186.917020
118.330977
94.419442
126.155360
202.469090
63.270315
-287.790748
39.201948
-49.562095
-17.985369
6.056890
-129.030870
110.952240
181.637960
99.373892
114.842930
138.890740
-8.953970
-284.544816
-279.926500
102.225004
-225.570519
221.858082
86.353165
65.742498
-102.758440
-73.555818
-102.029043
-41.957359
87.404099
218.002005
197.973709
-12.932270
162.913710
113.076980
194.041802
-6.834430
131.279770
137.041610
142.224369
155.136590
