# vtk DataFile Version 2.0
Unstructured Grid Example
ASCII
DATASET UNSTRUCTURED_GRID
POINTS 9997 float
-0.163905 0.702323 0.128488 
-0.405402 -0.411306 0.487747 
-0.163325 -0.056659 0.485251 
-0.161871 -0.059729 0.125164 
0.080143 -0.408275 0.128082 
0.074967 -0.406243 0.487954 
0.071992 -0.058885 0.128379 
-0.410083 -0.406750 -0.577083 
-0.410143 0.705404 -0.571333 
-0.406175 0.705446 0.486885 
0.071728 -0.060841 0.487026 
-0.172174 0.705092 0.487500 
-0.142817 -0.411379 0.014004 
0.076329 -0.132487 0.209703 
0.076217 -0.162773 0.422818 
0.076260 -0.339356 0.390224 
0.076210 -0.331896 0.215995 
-0.410350 -0.155579 0.195039 
-0.410271 -0.158975 0.410663 
-0.410382 -0.332847 0.403491 
-0.410344 -0.333219 0.207589 
-0.143921 0.705663 -0.460579 
-0.121166 0.705561 -0.002445 
-0.174337 -0.411419 -0.444078 
-0.409945 0.385206 -0.576872 
0.076879 -0.252922 0.125304 
-0.410074 -0.265997 0.487434 
-0.409835 -0.251496 -0.576962 
-0.409908 -0.173820 0.228168 
-0.027780 0.705060 0.123754 
-0.082950 -0.061098 0.487778 
-0.410034 -0.142652 0.343027 
-0.410019 -0.158554 0.368324 
-0.409953 -0.410881 -0.396642 
0.075789 -0.061040 0.405279 
0.219269 0.705049 -0.423890 
0.245054 0.705110 -0.403434 
0.075921 -0.163799 0.237754 
-0.006098 0.705110 -0.456111 
0.026532 0.705073 -0.465229 
-0.045125 -0.410815 -0.576893 
0.138031 -0.410853 -0.569350 
-0.369625 -0.410832 -0.576729 
-0.409863 -0.211785 -0.576932 
0.076814 -0.328021 0.125236 
-0.131943 0.385225 -0.445141 
-0.409882 0.705167 -0.490064 
-0.122538 -0.059756 0.125001 
-0.139635 0.465854 -0.005642 
-0.409965 0.585889 0.487827 
-0.131578 0.425209 -0.444430 
-0.410127 -0.336668 0.292662 
-0.137646 0.306007 -0.009465 
0.190648 0.705080 0.102343 
-0.164785 0.705169 -0.262216 
-0.409887 0.705166 0.322815 
-0.037508 0.705084 -0.010626 
-0.113865 0.705093 0.123910 
-0.166327 0.585517 0.124900 
-0.409867 0.705200 0.405460 
-0.166387 0.625176 0.124970 
0.057061 0.704979 0.123309 
-0.216126 0.705042 0.487579 
-0.166457 0.425891 0.124974 
-0.129593 -0.410802 -0.096998 
-0.247790 -0.158916 0.422553 
-0.166445 0.505746 0.124936 
-0.166345 -0.059940 0.233819 
-0.409932 -0.058983 0.487869 
-0.409924 -0.410615 0.430325 
-0.410105 -0.229717 0.407784 
-0.410115 -0.257255 0.404268 
-0.286019 -0.144018 0.192332 
-0.328738 -0.157837 0.417621 
-0.166353 -0.059921 0.361443 
-0.331730 -0.410882 0.487856 
-0.410079 -0.410572 0.288193 
-0.150722 -0.175232 0.008366 
0.083159 -0.410813 -0.470641 
-0.005427 -0.338860 0.218764 
0.035586 -0.344438 0.400223 
-0.208479 -0.354071 0.427318 
-0.044485 -0.351755 0.416437 
-0.004496 -0.347842 0.408584 
-0.166517 0.146331 0.125049 
0.076016 -0.137304 0.288302 
-0.167640 0.147569 0.487863 
0.076055 -0.251021 0.203714 
0.076074 -0.219121 0.204574 
0.075853 -0.306661 0.487786 
0.075882 -0.061321 0.282254 
0.076000 -0.410409 0.246968 
0.137279 -0.410752 0.117036 
-0.002878 -0.059818 0.125060 
0.240625 0.705125 -0.046661 
-0.166291 0.066087 0.124856 
0.310339 0.705093 -0.157586 
0.267662 0.705103 -0.378333 
-0.159313 0.705119 -0.160250 
-0.037517 0.705171 -0.442913 
-0.068681 0.705157 -0.576809 
-0.409992 0.225604 -0.576823 
-0.329285 -0.410700 -0.576931 
0.091046 -0.410803 -0.574947 
-0.142246 -0.053925 -0.430619 
0.425663 -0.410664 -0.221344 
-0.409818 -0.410827 -0.531151 
-0.409876 -0.291270 -0.576941 
-0.409882 0.066260 -0.576975 
-0.410015 -0.410862 0.116096 
-0.409901 -0.410875 -0.485615 
-0.289067 -0.410660 -0.576978 
-0.410015 -0.410812 -0.309207 
-0.249283 -0.410867 -0.576864 
-0.166319 -0.059956 0.319042 
-0.409964 -0.172091 -0.576886 
-0.409859 -0.013273 -0.576984 
-0.147723 -0.173286 -0.432816 
-0.410024 -0.132403 -0.576865 
-0.166361 -0.015285 0.124988 
-0.409921 -0.410886 -0.440807 
-0.410022 -0.410794 -0.265484 
-0.409992 -0.410840 -0.352880 
-0.167543 -0.410760 -0.221486 
-0.166174 -0.410763 -0.188832 
-0.409996 -0.410831 -0.009440 
-0.410027 -0.410777 -0.221805 
-0.245441 -0.141095 0.192453 
-0.410080 -0.410704 -0.135380 
-0.410051 -0.410752 -0.092875 
-0.410045 -0.410736 -0.178378 
-0.066649 -0.410806 -0.028943 
-0.090361 -0.410820 -0.047114 
-0.081907 -0.410869 -0.412032 
-0.157631 -0.410841 -0.156862 
-0.160047 -0.410739 -0.285240 
-0.165415 -0.410749 -0.253735 
-0.088292 -0.410836 -0.576884 
-0.409950 -0.154086 0.251998 
-0.145412 -0.410834 -0.125989 
-0.151196 -0.410754 -0.315112 
-0.111028 -0.410796 -0.070494 
0.118395 -0.410835 -0.467255 
-0.158027 -0.292063 -0.436532 
-0.054935 -0.410814 -0.432509 
0.047474 -0.410779 -0.469102 
0.010998 -0.410833 -0.462314 
-0.000890 -0.410762 -0.576953 
-0.130239 -0.410814 -0.576933 
-0.170805 -0.410852 -0.576865 
-0.210005 -0.410881 -0.576819 
-0.151325 -0.213066 -0.433730 
-0.409854 0.026481 -0.577009 
-0.143276 -0.015425 -0.006606 
-0.040097 -0.410782 -0.012734 
-0.409894 0.106061 -0.576959 
-0.135872 0.105380 -0.432550 
-0.140718 0.065779 -0.430362 
-0.139492 0.065093 -0.009351 
-0.167638 0.025728 0.487886 
-0.205162 -0.345129 0.220099 
-0.409910 -0.052991 -0.576940 
-0.410003 -0.092697 -0.576886 
-0.409888 0.145882 -0.576967 
-0.409855 0.185748 -0.577016 
-0.409972 0.345303 -0.576776 
-0.410022 0.425144 -0.576797 
-0.409952 0.265484 -0.576886 
-0.409883 0.305405 -0.576963 
-0.166637 -0.060076 0.445885 
-0.166441 0.306146 0.124982 
-0.409802 0.545109 -0.576986 
0.076846 -0.212954 0.125355 
-0.139262 0.185462 -0.432475 
-0.234720 0.705134 -0.576854 
0.312062 0.705115 -0.289752 
-0.409888 0.705156 -0.229876 
-0.409826 0.585139 -0.576927 
-0.410025 0.465106 -0.576799 
-0.147094 0.705137 -0.126971 
-0.166377 -0.059931 0.403639 
-0.026210 0.705142 -0.576836 
-0.064504 0.705175 -0.425657 
-0.409918 0.505085 -0.576921 
-0.151081 0.705151 -0.576825 
0.060664 0.705103 -0.577048 
0.349997 0.705062 -0.442777 
0.191325 0.704987 -0.441696 
0.024217 0.705152 0.011815 
-0.007794 0.705122 0.002557 
0.057662 0.705158 0.017178 
-0.146121 0.705177 -0.327581 
-0.131149 0.705181 -0.356891 
-0.141182 0.665338 -0.457774 
-0.167390 0.705125 -0.228145 
-0.278345 0.705127 -0.576868 
-0.140558 0.346028 -0.009021 
-0.110293 0.705162 -0.576808 
-0.139380 0.624621 -0.456082 
-0.192232 0.705136 -0.576845 
-0.409818 0.625228 -0.576957 
-0.409758 0.665348 -0.576771 
-0.409854 0.705113 -0.523271 
0.016701 0.705123 -0.576916 
-0.322612 0.705057 -0.576926 
-0.367411 0.704950 -0.576701 
-0.409900 0.705149 -0.405863 
-0.157679 0.705188 -0.295639 
0.105853 0.705074 -0.574290 
-0.409862 0.705163 -0.318897 
-0.166398 -0.059904 0.193225 
-0.409903 0.705148 -0.362682 
-0.409870 0.705161 -0.448358 
-0.165663 0.705098 -0.194023 
-0.166433 0.266208 0.124981 
-0.409870 0.705162 -0.185180 
-0.409885 0.705157 -0.274541 
-0.410126 -0.410401 0.333767 
-0.409915 0.705142 -0.096974 
-0.409905 0.705147 -0.140783 
-0.082301 -0.059847 0.125076 
-0.069919 0.705065 0.123766 
-0.410106 -0.303815 0.487393 
-0.140334 0.266023 -0.011886 
-0.136976 0.425924 -0.006765 
-0.134912 0.505663 -0.005144 
-0.167722 0.705162 0.282389 
-0.167717 0.705157 0.323295 
0.101202 0.704907 0.121309 
-0.409814 0.705130 0.446637 
-0.167722 0.705144 0.203107 
-0.167737 0.705216 0.170469 
-0.167713 0.705138 0.241936 
-0.128943 0.625330 -0.002653 
-0.125599 0.665304 -0.001847 
0.076727 -0.357262 0.124907 
-0.409873 0.705166 -0.011131 
-0.409828 0.705198 0.031206 
-0.410100 -0.306963 0.377327 
-0.409905 0.705146 -0.053815 
-0.409893 0.705144 0.198541 
-0.409834 0.705193 0.073290 
-0.409899 0.705135 0.156927 
-0.409881 0.705153 0.115187 
-0.409887 0.705154 0.240049 
-0.409889 0.705153 0.281461 
-0.167493 0.466559 0.487766 
-0.167611 0.625952 0.487940 
-0.409989 0.386911 0.487829 
0.215100 0.705137 -0.025628 
0.187164 0.705121 -0.008154 
-0.410056 0.506321 0.487834 
-0.409938 -0.147254 0.487884 
-0.409992 0.546127 0.487873 
-0.410055 0.466515 0.487808 
-0.409878 0.227730 0.487912 
-0.409717 0.665202 0.487811 
-0.409884 0.625609 0.487858 
-0.409881 0.705182 0.364143 
-0.326514 0.705094 0.487863 
-0.288543 0.705167 0.487823 
0.344376 0.705011 -0.003012 
-0.249537 0.705173 0.487794 
-0.167799 0.665735 0.487718 
0.145789 0.705040 0.115253 
-0.167684 0.705135 0.364382 
-0.167624 0.705127 0.405554 
-0.167846 0.704978 0.446640 
-0.167613 0.586082 0.487853 
-0.167597 0.546244 0.487854 
-0.167593 0.426732 0.487811 
-0.167516 0.506404 0.487796 
-0.167655 0.307286 0.487849 
-0.167657 0.187631 0.487859 
0.076754 -0.291542 0.125485 
-0.167662 0.267446 0.487851 
-0.167666 0.227571 0.487854 
-0.167619 0.386922 0.487826 
-0.167638 0.347109 0.487838 
-0.410040 0.426710 0.487804 
-0.409913 0.267555 0.487877 
-0.409847 0.347140 0.487900 
-0.409912 0.307357 0.487871 
-0.409836 0.187865 0.487958 
-0.409940 0.107806 0.487874 
-0.409784 0.147906 0.487984 
-0.410039 0.067308 0.487801 
-0.409888 -0.015444 0.487877 
-0.370089 -0.338713 0.410366 
-0.409789 -0.375616 0.487454 
-0.410013 -0.134878 0.313505 
-0.410028 0.026361 0.487799 
-0.166389 0.106281 0.124957 
-0.409988 -0.226960 0.487712 
-0.409987 -0.139725 0.281911 
-0.409989 -0.254286 0.208177 
-0.167633 0.107322 0.487866 
-0.290027 -0.348608 0.421771 
-0.409962 -0.224827 0.207107 
-0.409890 -0.196849 0.211882 
-0.370916 -0.410848 0.487545 
-0.330003 -0.343212 0.415926 
0.076824 -0.134681 0.125195 
0.075945 -0.162991 0.373122 
-0.152347 -0.295194 0.016769 
-0.166376 -0.059832 0.155480 
-0.326998 -0.339776 0.213680 
-0.409954 -0.282715 0.216765 
-0.410057 -0.410764 0.201264 
-0.410020 -0.410861 0.159035 
-0.410003 -0.410846 0.031914 
-0.410010 -0.410858 0.073558 
-0.409989 -0.410830 -0.050941 
-0.125581 -0.135347 0.196451 
-0.139637 0.145621 -0.013149 
-0.142409 0.024857 -0.009380 
-0.165423 -0.134759 0.193761 
0.075915 -0.186781 0.218026 
-0.005087 -0.132430 0.203609 
-0.011769 -0.410764 0.000830 
0.018422 -0.410804 0.010943 
0.084124 -0.410890 0.016998 
0.050654 -0.410913 0.016630 
0.075940 -0.134969 0.318605 
0.075902 -0.145396 0.348112 
0.075874 -0.410846 0.371769 
-0.085938 -0.343068 0.221179 
-0.045844 -0.341978 0.219715 
-0.165251 -0.346406 0.220165 
0.075919 -0.335897 0.291867 
0.032954 -0.059911 0.124897 
-0.045495 -0.131490 0.200320 
[...]
CELL_DATA 7746
SCALARS u float 1
LOOKUP_TABLE default
4.805710
5.140855
5.176728
-2.600219
1.577102
1.915587
1.935770
-0.678346
-1.016542
-1.029699
-1.362766
-1.012725
-0.686820
-0.658948
-1.429615
-1.765129
-1.470513
0.957904
0.983545
1.051762
0.693126
-10.672761
-2.051075
6.119516
3.488964
7.703289
-3.829066
-4.188290
-4.572250
-4.418143
-4.017644
0.819979
0.640900
1.010794
1.375281
1.223104
2.768565
3.068843
2.320387
2.263639
2.712631
0.629002
0.736070
1.179867
1.137215
1.473937
-0.259749
-0.578005
-0.274298
-0.856609
-0.608373
-2.496752
-2.318203
-2.901116
-3.102715
-2.725006
-1.260956
-1.307128
-0.840574
-0.483786
-0.809130
-2.046639
-2.342010
-2.360072
-2.846064
-2.734921
-4.186438
-3.847385
-4.505148
-3.860971
-4.253324
0.162275
0.534245
1.158111
1.161793
0.516279
4.230413
4.077665
4.630232
4.467398
4.840174
-7.514159
-7.490523
-8.214401
-8.545312
-8.130943
-4.307527
-4.626453
-0.627700
-0.318504
-0.555167
-0.868947
-0.206447
-0.520748
-1.360061
-1.678587
-9.402506
-9.720911
5.913815
6.263336
2.237660
2.546969
-1.309121
-1.469922
-9.602116
-9.255788
3.186970
2.892167
4.010899
3.614835
4.414466
1.685920
1.478264
1.930643
-8.091019
-7.764096
-6.243453
-6.676295
-10.351813
-9.084048
-0.823154
-1.113086
-1.169210
-1.452790
-0.906248
-1.172298
-1.011752
-1.006197
-1.326186
-1.333477
-1.642296
-2.007978
-1.960150
-2.324158
-1.605774
-1.921921
-1.711470
-1.384013
-0.348946
-0.662860
-0.314139
2.403372
2.548792
2.219358
2.073633
2.941492
3.163264
2.611625
2.834750
2.806826
2.478533
5.467422
5.148641
-0.696989
-0.695969
-1.331330
-1.697046
-1.299301
-3.677504
-3.420441
1.631647
1.856656
1.238505
1.303796
0.912167
1.530410
1.500088
1.092354
1.175834
0.766502
7.528747
7.749005
1.802454
2.051816
5.113058
4.782480
4.999566
5.361830
5.554375
4.522847
4.196009
4.159601
3.835517
4.488296
4.164761
5.776294
5.443618
4.847126
4.480123
4.811000
6.606645
6.942287
7.384453
3.224062
2.865360
2.900849
2.542292
3.203347
2.883038
-5.209964
-4.827158
-0.312016
-0.263354
0.060039
0.014955
0.505175
0.151765
0.479733
0.830223
0.196163
0.520883
3.522156
3.842888
3.511272
3.187557
3.870569
3.547555
-0.068934
0.279301
-0.014223
-0.376338
0.280924
-0.060715
0.320879
-0.038861
-3.044790
-1.673668
-1.443156
-1.971288
-1.643374
-1.813450
-2.207182
-1.473678
-1.306114
-1.869338
-2.416325
-2.078890
-2.045040
-1.707181
-0.469657
-0.151631
-0.922462
-0.133448
-0.590419
0.179520
-0.505583
-0.968414
-0.175134
-0.637505
0.956309
1.271917
0.965488
0.661643
1.284212
0.960251
-2.287700
-1.964111
-3.810588
-4.158098
-2.753819
-2.600493
-2.907703
-3.066550
-2.017409
-2.378223
-2.697818
-2.334805
-2.205497
-2.512294
-6.505093
-6.194070
-1.295254
-0.945386
-1.536732
-0.951794
-1.195260
-0.608599
-0.917095
-1.235717
-0.588174
-0.907677
0.432867
0.827938
0.332396
0.854643
1.159755
-0.769253
-1.077433
-1.046878
-0.448127
-0.728437
-0.752960
-1.530713
-1.207252
-1.424263
-1.103356
-0.167503
0.215502
-0.262752
0.134843
0.038425
0.520760
0.521868
0.220266
0.537562
0.841340
0.635194
0.959151
0.612148
0.288259
0.969689
0.647915
1.874586
1.574090
3.578017
3.256864
0.099684
-0.141005
0.421925
1.851343
2.273852
1.943017
-0.583337
-0.877453
-1.134419
0.370590
0.702118
0.036526
0.367190
0.324984
0.653532
7.210349
7.229564
-0.011481
0.312879
-0.034222
-0.358609
0.325053
0.001324
6.958404
6.768588
4.816151
2.662126
3.021383
1.304405
0.665095
0.349053
-5.583260
-5.901989
-10.024167
-7.064525
-5.177580
-4.532500
-5.522573
-5.507477
-5.850489
-4.860032
-4.507684
-4.833012
-5.090511
-5.419325
-1.475675
-1.838693
-10.312983
-10.039655
-6.857785
-7.176278
-5.154414
-5.496614
-9.954170
-9.693741
-8.911433
-8.566351
-9.362753
0.623891
0.334986
0.626113
-8.766123
-7.494429
-7.812328
-6.167910
-5.511313
-6.509774
-6.500773
-6.844386
-5.839772
-6.076381
-5.484384
-6.410443
-5.813322
-8.448593
-0.326635
-0.686334
-0.339846
-8.219459
-6.233072
-6.512270
-5.918328
-6.164747
-6.499019
-7.871317
-1.375322
-1.748024
-0.976828
-1.537485
-1.142756
-7.178488
-7.523897
-6.836646
-3.650314
-7.385362
-5.574810
-6.971317
-6.757808
-8.408051
-2.070162
-7.154438
-5.846463
-6.505189
-6.478163
-6.812473
-6.841073
-7.084807
-7.517060
-7.856633
-7.426988
-7.178556
-7.523258
-7.223874
-6.786472
-7.029227
-7.423293
-8.719936
-9.036245
-6.839216
-7.181727
-6.172371
-6.747951
-6.146653
-0.732471
-1.087302
-1.493160
-1.409458
-1.054102
-1.809190
-1.350460
-1.666197
-0.957995
-1.273320
-3.297456
-6.539214
-3.801383
-4.227926
-3.221102
-4.551315
-4.122619
-3.540310
-3.240340
-3.874639
-3.562501
-4.198327
-4.881268
-4.449689
-3.865811
-4.527621
-3.887778
-0.848050
-0.705218
-1.026750
-1.169710
-0.313210
-0.084255
-0.634918
-0.406145
-0.438757
-0.761099
2.606975
2.274546
-2.561522
-2.525512
-2.855631
-2.204365
-2.245494
-2.529196
-2.954909
-2.635126
-3.188688
-2.864614
-8.130472
-6.220675
-4.945840
-3.988519
-5.264841
1.605123
1.257165
1.580080
1.925072
2.244297
1.899019
1.578203
2.256483
1.935249
-3.029335
-3.349482
0.111910
-0.232833
0.015148
-3.175203
-3.595695
-2.589484
-3.912713
-3.488789
-2.908823
-3.238084
-2.606092
-3.557313
-2.925267
-1.004482
-0.645623
5.924357
5.577832
0.329612
0.686304
-2.708931
-3.669179
3.409887
0.988714
-0.293168
0.037110
1.677050
1.321711
4.961200
4.455528
3.230184
5.715035
6.048621
6.353246
1.422355
1.594719
1.280998
-0.149184
0.227806
0.852388
0.208224
0.853951
2.340225
-1.362899
2.178138
1.821027
1.413247
1.558289
1.952569
-0.461363
-0.080530
0.541907
-0.099670
0.544005
-2.385726
-1.720744
-1.049823
-0.713248
2.063710
-0.371458
-0.023528
-0.396548
-0.719652
-0.382897
1.603015
1.256295
1.613232
1.044638
-3.440332
1.401386
1.754572
-0.011217
-0.310491
0.030833
0.582212
0.437760
0.848661
1.202587
0.974912
1.889856
1.744328
2.282786
2.150801
2.507163
2.883506
3.276258
2.736992
3.495999
3.138533
6.405694
6.080215
6.733410
7.255945
5.759816
5.454164
3.891944
4.287398
3.742173
3.553773
3.406137
3.947480
4.500812
4.164553
4.134903
3.803343
2.447460
2.103377
2.787373
4.121111
3.789560
3.123479
3.457231
4.451982
6.130975
5.811949
7.402192
7.086434
3.873825
3.555652
7.142267
7.019499
4.829901
4.511013
4.192284
2.599955
2.281458
5.788524
6.445865
6.756865
7.073333
8.022655
7.974104
7.062036
7.389154
6.768143
6.449673
5.493011
4.855470
4.536583
3.898088
4.217516
5.174255
2.918585
3.237305
1.962402
1.641810
1.318948
0.993406
0.662526
-2.398398
-2.515581
-2.013489
-1.727063
-2.041738
-1.727376
-1.072412
-3.496997
-3.719866
2.933594
-1.409256
-1.722790
-1.691821
-1.090019
-1.370251
-1.401558
-2.187189
-1.858494
-2.072395
-1.748867
-3.219526
0.736839
0.391001
0.426326
0.084988
0.680505
0.356785
2.263529
-2.949459
-3.313558
-3.677515
-3.609553
-3.246145
-3.978185
-3.517295
-3.119402
-3.818182
-3.419182
-3.920932
-3.526450
-4.171467
-3.593631
-3.840062
-3.201518
-3.855243
-3.520284
-3.517393
-3.183117
-4.484133
-4.811783
-5.832096
-0.708162
-0.326565
-1.080526
-0.369300
-0.742714
0.007104
-0.477729
-0.871129
-0.543289
-0.146269
-0.203911
-0.060826
-0.388401
-0.530177
0.332840
0.560701
0.004588
0.234128
0.206431
-0.120199
-1.043940
-0.653588
-1.415615
-0.811014
-1.203147
0.535742
0.134784
-0.049334
0.475379
0.875747
0.297684
0.693613
1.033805
0.324512
0.668377
-2.955233
-2.627274
-2.327042
-2.053896
2.108820
0.072712
0.454600
-1.883039
-2.209982
-1.873339
-1.558149
-1.604699
-1.565674
-1.239910
-1.274235
-1.981441
-1.638263
-2.542724
-2.209564
-2.314943
-1.929904
-1.890974
-0.112902
0.117826
1.036559
0.194494
-0.205711
-0.396938
-0.023811
0.349095
0.318727
0.632730
0.200731
-0.101466
-0.094658
-0.571175
-0.476126
0.002010
-0.426683
-0.886177
-0.123464
-0.411894
-0.788368
1.155742
0.804748
0.338810
1.127815
1.481725
0.659786
0.387264
0.714562
0.844659
1.167858
1.624907
1.677303
1.997848
1.943605
2.131215
2.438812
2.448216
2.754149
2.084944
2.399200
2.862953
3.173628
2.589543
2.457791
2.164504
1.846648
1.538083
-0.725451
-0.622119
-0.266864
2.562373
2.219391
2.578625
-0.897592
-1.814674
-1.626801
-1.492185
-1.409022
-1.380223
-1.411103
1.390339
-0.587293
-0.919745
-1.167714
1.290807
0.934918
1.281716
-0.625293
7.857850
7.907477
8.000587
6.839969
6.617020
-0.738334
7.102602
6.527400
6.241432
7.195226
7.676443
7.432789
3.946577
7.128817
6.771563
6.367465
2.861870
5.925337
5.207275
2.209697
5.452899
-10.357954
2.954832
2.490400
3.444732
2.521704
-2.080883
-2.370528
-2.256217
-2.714758
-5.276457
-5.772583
-5.077095
-5.471934
-1.643063
-1.837776
-1.500291
-4.256830
-4.670367
-2.697430
-3.050166
-3.434678
-3.841889
-3.200255
-3.707552
-4.229482
-4.756520
-3.009977
-2.646081
-3.373990
-2.816438
-3.212878
-5.186144
-5.159351
-5.746876
-6.180128
-5.839182
1.305230
1.362501
1.814092
2.122284
1.768377
-4.209212
-4.186525
-4.769305
-5.203767
-4.853857
-1.982311
-2.127154
-1.588181
-1.735752
-1.377554
-2.640057
-2.276390
-1.648269
-2.594405
-2.956743
-1.964112
-1.640405
-1.953300
-2.233636
-2.543816
1.614971
1.304019
-3.097306
2.097014
-1.176790
0.409470
-1.636939
-7.325908
-1.307342
-0.977550
-0.648243
-0.320969
3.813764
0.263603
0.119210
0.529623
0.883947
0.657501
-4.116451
-4.274582
-3.717226
-3.537103
-3.899006
0.235612
0.236411
-0.402566
-0.766776
-0.381861
-2.384518
-2.758814
-1.980655
-2.155948
-2.552694
-2.880782
-2.853283
-3.188117
-3.514699
-3.274497
-7.179798
-7.151154
-7.869692
-8.199996
-7.775535
-2.269837
-2.283599
-2.915658
-3.275040
-2.858751
-0.072056
-0.071750
-0.708720
-1.073128
-0.683974
-1.387176
-0.995078
-0.388277
-0.387031
-1.023075
3.217170
3.070296
3.610017
3.828873
3.470171
-1.899104
-2.294165
-1.700250
-2.443018
-2.059938
1.491905
1.805307
1.041928
1.450203
0.984003
3.205206
3.594630
3.274013
2.881165
5.407675
5.812647
5.491632
5.085193
0.367299
0.010512
-0.307984
0.048363
-2.245137
-1.752826
-2.081159
-2.571716
0.583287
0.383810
0.064822
0.264916
-2.061969
-1.739344
-2.055040
-2.379803
2.292589
2.676291
5.107884
5.434366
5.109111
4.780530
-6.150166
-6.501964
-6.818996
-6.466445
-5.313430
-4.997555
-5.337693
-5.653131
4.131912
3.800824
2.569483
2.749819
2.434078
2.251509
-2.507699
-2.187482
-1.878941
-2.200995
5.972693
5.607042
2.286297
1.964703
1.633340
1.954015
-4.215940
-4.540678
-4.270104
-3.943352
-3.765396
-4.036931
3.544198
3.515837
3.191667
3.223540
3.338259
3.054677
2.724608
3.010828
3.894186
3.666505
3.568779
-9.626812
-9.984754
0.782474
0.534538
0.219116
0.466599
-3.356211
-3.713461
-4.026788
-3.666323
-2.119578
-1.711154
-2.029379
-2.441226
-0.938038
-0.636491
-0.984137
-1.292655
-2.642703
-2.983983
-3.300993
-2.959312
-4.129494
-3.719838
-4.033419
-4.446656
5.031392
5.178009
4.856840
4.711512
4.998072
4.731953
4.408080
4.679228
1.743468
2.198233
1.878268
1.422554
4.160905
4.341559
4.025898
3.843280
1.205367
0.883803
0.564575
0.887477
3.384912
3.361736
3.044299
3.068700
3.284512
2.963952
-1.919843
-1.428287
-3.033981
-2.900333
-3.362662
1.007733
1.491225
1.170850
0.688156
-7.965028
-8.305565
-8.622593
-8.281062
6.206096
5.922026
6.490281
6.792817
6.472259
6.169678
-1.104944
-0.596457
-0.916939
5.605166
5.602247
5.284389
-0.853075
-0.429392
-0.757363
-1.182563
4.441065
4.261990
3.936079
4.116446
3.576737
3.256750
3.193563
2.873265
-7.687628
-7.413843
-0.771722
-0.449079
-0.791054
-1.113400
2.569852
2.889166
2.556251
2.236518
1.814139
1.635280
1.317289
1.497139
3.292336
3.690670
3.369307
2.969755
-1.017492
-0.987201
1.502437
1.824570
1.485973
1.163565
0.863720
1.269093
0.948177
0.542894
2.265387
1.946547
2.027605
1.735563
1.418897
1.711377
3.048997
2.649680
-7.098985
-7.453501
-7.770568
-7.414990
6.047267
5.872681
5.548749
5.726753
1.390128
1.101169
1.068161
6.439429
6.757802
-2.934299
-3.275606
-3.591535
-3.249985
-4.140140
-3.816084
-3.485468
-3.810043
1.725468
1.965077
1.649455
1.408572
0.362694
0.851462
0.526300
0.035128
-0.583382
-0.202160
-0.518427
-0.902357
2.059917
1.706994
1.387245
1.738193
2.919738
3.114966
2.798600
2.601359
1.664930
1.339931
-0.815182
-1.059814
-1.378400
-1.136842
-5.245797
-4.948543
-5.264499
-5.566602
-2.563492
-2.907880
-3.224528
-2.880179
-5.679438
-6.021572
-6.336980
-5.994719
-6.725450
-7.066910
-7.382513
-7.041360
1.540679
1.349628
1.027106
1.220524
4.245504
4.550859
4.228883
3.923356
-7.768692
-7.448065
-7.100876
-7.422949
0.720774
0.807819
0.490400
0.402784
4.154269
4.473549
4.142793
3.823118
-8.411532
-8.089744
-7.746719
-8.070805
-4.647599
-4.328934
-4.660860
-4.977587
3.208484
2.876041
4.179047
4.497985
4.166262
3.847060
-5.826886
-5.502498
-5.171669
-5.493570
-1.787284
-1.432602
-1.746845
-2.102739
-4.991496
-5.302518
-5.613829
-5.299761
-8.087380
0.706486
1.219351
0.897515
0.381547
-6.183189
-6.531687
0.668927
0.852358
0.534717
0.354064
4.356968
4.084370
3.759641
4.033222
-7.730858
-1.303322
-1.620044
6.625117
6.467961
6.147103
6.305712
3.033740
2.748942
2.713269
3.709056
-1.540813
-1.158036
-1.473389
-1.858865
4.485330
4.804249
-2.510945
-2.273328
-2.599596
-2.832987
1.419018
1.843337
1.519757
1.097413
-0.848446
-0.335855
-0.656250
-1.166710
-2.000284
-1.625522
-1.952106
-2.324376
-8.305685
-7.982414
-7.684278
-7.990658
0.573777
0.057703
2.430372
2.807234
-2.997810
-3.317408
1.701168
2.065283
2.372108
1.996866
-1.890365
-1.508861
-1.835436
-2.217157
-0.145351
-0.111730
-0.430394
-0.462002
-2.038967
2.350680
2.027584
7.703066
7.657058
6.872410
6.908253
6.587022
6.550056
-4.316009
-4.558240
-4.872619
-4.632208
3.542021
3.222115
2.890244
3.210607
-1.019050
-0.655410
-0.977835
-1.345814
2.140090
1.826379
1.500395
1.814044
1.716296
1.399109
1.017603
6.948460
6.789402
-0.616192
-0.126579
-0.451275
-0.945720
-2.407805
-2.647080
-2.966810
-2.728440
6.783082
6.638242
1.942313
4.206083
4.525292
3.701712
3.680141
-6.561896
-6.251735
-6.592167
-6.903620
2.907424
2.539822
-0.270650
-0.776770
4.844392
5.163437
-2.078860
-1.624063
-1.938272
-2.397514
0.061898
0.258886
-0.061694
-0.255044
0.002012
-0.352948
-0.803385
-0.474128
-0.789304
-1.117869
-1.489820
-0.978311
-1.297032
-1.804847
1.379171
1.685284
1.369471
1.062648
-1.403802
-1.725054
1.485020
7.074622
5.267828
4.947661
-1.239320
-1.561802
-1.083324
-1.409943
-0.077207
-0.400918
4.291892
4.638222
4.318182
3.969542
6.764312
6.446608
-4.038900
-4.356274
5.971313
5.649908
5.327341
5.647430
2.404342
2.058893
1.727160
2.071594
5.936947
6.283709
5.225483
4.121467
4.453209
4.124487
3.790976
2.198577
2.220217
1.875187
-2.708177
-2.385103
-2.722907
-3.044288
0.942990
1.262849
0.927853
0.607372
-7.128621
-6.807998
-6.458425
-6.780073
4.454809
4.137821
3.412861
3.089872
-1.735830
-2.159915
0.838285
0.520774
-1.706403
-1.371043
-0.012259
0.304776
-0.033001
-0.352099
-2.706575
7.079260
-2.152488
-2.501880
-2.820376
-2.471652
-8.404103
-5.874860
-5.554970
-5.203918
-5.525162
0.618620
0.282478
-0.050567
0.271052
-0.065793
-0.388437
-6.952467
-6.675157
-7.028475
-7.305467
4.524480
4.199515
3.880950
4.205838
3.132045
3.531337
2.803747
-5.214172
-4.843028
-5.158897
-5.530896
0.472022
0.120874
-0.199676
0.150518
-1.580666
-1.930196
-2.247008
-1.898301
1.627463
1.307760
-7.152814
-6.833288
-6.486639
-10.032122
-9.703423
1.318726
1.287340
0.966306
0.999398
-3.047183
-3.349350
-2.452915
-3.041745
-2.768572
-3.281769
-2.100000
-2.444419
-2.764788
-2.420650
-1.115876
-1.394933
-1.704145
-1.426671
-4.848894
-5.171894
-1.996843
-2.324405
-1.021524
2.269600
2.238006
1.921036
1.951932
5.758861
5.436000
-4.496065
-4.112284
-4.437438
-4.818488
2.232019
1.912695
-0.532098
-0.855514
-9.286685
-9.647335
-1.740996
-1.867622
-2.185515
-2.059317
-0.236475
0.001137
-0.322302
-0.560251
-0.594087
-0.913040
-1.301202
-5.509068
-5.827708
-5.554681
-5.234172
-3.813440
-3.286172
-3.604062
-4.129599
-3.520863
-3.133596
-3.461901
-3.847370
0.706867
0.901876
-4.351381
-4.763358
-6.202724
-6.446336
5.458311
5.435653
5.112229
5.135736
-2.501490
-2.375178
-1.561254
-8.946447
-8.623765
-8.291583
-8.598138
-4.185928
-3.691829
-4.012481
-4.506208
0.419679
0.103137
2.732766
-0.168437
-0.488924
-0.839160
3.794423
3.616793
3.295571
3.475365
5.801696
6.120681
1.582884
1.903026
1.569228
1.248530
-3.479801
-3.245151
-3.568506
-3.804813
2.353606
2.071746
-1.270314
1.945975
1.335902
0.974248
-1.880202
-1.477208
-1.798213
-2.202848
5.528106
5.832771
5.512707
5.206497
-1.559109
-2.277063
-4.540116
-4.884119
-5.200994
-4.855941
-2.485797
-2.420628
-2.806821
-8.395645
-7.728189
-8.054745
1.610806
4.954376
4.636346
-2.533222
-3.196832
-2.850329
1.760359
1.439315
1.081133
6.506817
6.825903
1.806918
2.127332
1.783618
1.463039
-0.342923
0.287028
-3.544732
-3.051637
-3.373471
-3.866563
4.347743
4.026402
3.702920
4.026933
-0.980772
7.432228
7.211424
6.891490
7.111998
2.286566
1.965997
1.817114
2.176431
2.084111
1.917651
1.595990
1.266291
1.589184
-0.390206
-0.713791
0.381557
0.741635
0.425447
0.062095
5.439006
5.623243
5.302907
5.118021
2.154340
1.808064
1.480221
1.010682
1.211272
0.891823
0.694359
1.742791
-2.800270
-2.466896
-2.809859
-3.144785
-3.644526
-3.962236
-3.637164
-3.957259
3.299094
3.809619
3.484579
2.978270
-3.875622
-3.547644
-3.873881
-4.200496
-0.350612
6.109689
6.428431
-0.141399
-0.452467
-0.767228
-0.455547
-0.787786
-1.100603
-7.401125
2.543321
2.863457
2.530863
2.210338
-7.988905
-8.332724
-8.649477
-4.000888
-3.678894
-4.008415
1.103643
1.514097
1.187222
0.777218
7.583453
7.479157
-0.691104
-1.009338
-0.661378
3.454529
2.725630
0.987070
0.664686
7.315986
-5.292555
-5.628046
0.146909
0.599056
0.281900
-0.175032
2.546469
2.119980
-3.223397
-2.894370
-2.567118
-2.895334
-0.646860
-0.975658
-0.909094
-1.262861
-1.227960
4.215205
3.896130
-3.326548
4.639155
5.131859
4.809308
4.314688
-0.509942
-0.102485
-0.421941
-0.834258
2.466606
3.092519
3.529224
-6.592922
-6.308450
4.534113
4.211151
3.892292
-5.868427
-6.228958
4.486776
4.960643
4.639330
4.168900
0.642774
1.030213
0.704970
0.319562
-5.517231
-5.171460
2.726680
2.644194
2.323508
2.402037
0.711726
0.771688
0.388642
-0.376967
-0.233333
-0.549245
-0.692122
4.890066
5.328194
-5.403939
-4.975502
-5.293529
-5.724650
-4.279861
1.593642
1.917800
1.604595
1.277587
0.133122
0.379250
-0.183364
1.740488
1.356078
2.638876
2.887084
2.319021
4.320449
4.763319
4.442629
3.998898
3.183464
2.851354
4.838550
4.520478
2.190485
2.703462
2.380518
1.867180
-0.115465
0.083733
-0.436155
5.924821
5.601511
5.826363
-0.475853
-0.834359
-1.144671
-0.273103
-0.593927
1.846769
1.989307
1.670084
1.529569
7.681343
-6.081394
-6.410001
6.720021
6.397044
6.153495
3.646068
-1.595325
-2.559176
-2.239376
-1.883319
-2.202602
-6.904457
-6.707811
0.065892
0.448273
0.125696
-0.257611
-6.039877
-6.408885
1.085870
1.581895
1.260765
0.763904
2.327999
4.784830
4.458710
4.596795
4.236539
3.912691
4.272140
1.647548
2.010836
1.694287
1.328670
1.541296
1.905120
4.076754
3.709265
3.381694
3.749733
-1.825062
-2.136968
-2.140202
-9.711592
4.218123
4.308365
3.988046
3.898722
-2.008593
-2.211295
-2.528645
-2.325683
4.980247
4.626998
4.303446
4.656756
-1.110601
-1.264682
-0.456917
-0.538543
-0.855609
-0.774563
-1.222239
-1.939566
-9.000160
-9.357872
-9.676466
-9.318834
3.864743
3.838036
2.874960
2.555496
2.236368
2.554910
-7.113449
-6.787984
-5.931171
-5.459491
0.413031
-0.050153
0.095002
0.358968
0.044366
-3.937907
-7.075660
-4.243366
-4.714716
-1.285729
-1.121762
3.850565
3.530637
3.201048
3.521085
0.576977
-2.987566
-2.648953
-2.968837
-3.309582
1.081986
1.435183
6.934934
7.184696
5.228228
1.934623
1.801820
1.618652
-1.503497
-1.821094
-1.456164
-1.139895
-9.995111
0.987227
0.645653
6.145759
5.170406
4.847506
0.262710
0.600056
0.282130
-0.057767
2.167258
2.633612
2.307301
-6.677632
-7.017358
-7.332563
-6.993444
-1.574023
-1.262034
-1.588519
-1.899876
6.892731
-6.436614
-7.308918
-7.648647
-7.623826
-2.261665
6.420132
6.397572
6.077661
6.099725
-6.652203
-6.309528
-2.461822
3.602380
-0.979302
-0.626351
0.647068
0.542569
0.228341
0.332487
2.518888
2.839689
2.506950
2.185820
-0.611256
-0.281800
-0.607835
-0.934740
1.237482
0.918965
2.427138
2.392517
0.960623
0.681141
0.642222
0.761952
1.114900
3.181631
2.905045
2.862981
-2.400914
-2.741633
-3.062049
4.612965
4.960947
1.526438
1.209943
7.014750
7.061982
6.741102
6.694054
3.707987
3.525083
-2.597954
-2.919312
-3.292317
2.477941
2.557825
2.158693
3.848054
3.523372
-5.141778
-4.758160
-5.080828
-5.467590
-5.046855
-5.389377
-5.706003
-5.363646
-6.149332
-5.875849
1.358755
1.037919
-1.065812