# vtk DataFile Version 2.0 
Created by AlgoHex
ASCII
DATASET UNSTRUCTURED_GRID
POINTS 9280 double
-20.0821 -93 112.679
-21.6867 -96.2851 113.292
-23.3512 -105 96.0714
23.3512 -96.9686 113.929
-11.6756 -97 65.5357
-11.6756 -105 144.464
11.6756 -97 144.464
20 -105 105
21.5 -65 105
20 -2.44929e-15 0
11.6756 -39.4643 8
-11.6756 -39.4643 0
-21.6867 8.2921 8.71489
20.8181 9.17195 9.18006
22.9254 -7.03905 8.51584
12.2778 37.8893 4.7651
-11.6756 39.4643 8
21.5 2.63299e-15 40
-1.50367 -101.5 75.2274
3.62942 -98.4713 132.282
5.5 -101.5 70
-6.22167 -100.428 72.1171
-17.0043 -105 94.4714
-18.1693 -105 96.6408
-19.9621 -105 103.769
-19.9621 -105 106.231
17.6202 -9.46187 0
-18.1693 -8.35921 0
-19.6595 -3.67499 0
-19.9621 -1.23122 0
-19.9621 1.23122 0
-5.33433 24.9203 8
5.5 35 3.5
-5.3621 -33.7761 1.75
-20.7475 -96.3947 94.2127
-19.1719 -95.7912 117.032
-22.555 -95.7268 105.913
21.491 -95.7339 98.072
15.7531 -95.3643 89.2535
7 -100 140
-0.666559 -101.5 145.362
-3.95397 -98.4314 62.3982
-0.444005 -101.5 64.6379
5.4946 -98.125 63.0304
1.24281 -101.537 64.6452
-7.02304 -98.3997 65.036
-19.6595 -105 101.325
-3.07811 39.4691 3.5
-0.530758 40.3621 3.5
4.44031 38.0322 3.5
9.58409 20.6079 9.11671
-18.3831 13.2688 9.17157
21.0204 8.16483 9.29816
17.9363 -15.2133 8.52483
-22.4449 -1.00283 9.3918
-5.67104 -41.4157 6.56279
-3.95397 -42.6018 6.56861
3.59539 -39.0917 3.5
4.97786 -37.2876 3.5
-8.21206 -37.0266 6.45844
-3.1764 -98.4026 122.184
18.8042 12.0419 9.5612
-5.3621 33.7761 1.75
-8.33933 -21.0634 9.1891
2.66546 -28.5089 5.01702
-16.6421 -95.8812 120.475
-5.3621 -103.25 138.776
-10.1226 -95.8083 84.736
22.3867 -95.8195 101.474
7 -35 5
-2.01605 17.3416 7.06732
9.10029 -21.7796 8.47772
13.5452 -95.4429 122.756
22.3867 -3.52593 9.18051
22.4361 -1.74786 9.3254
22.4526 -1.15516 9.3737
21.5 -5.17727e-15 13.1274
22.2024 -7.21417 8.82242
21.6469 -6.35358 9.26854
-20.5559 -10.8214 8.73399
10.7908 -93 86.4324
7.25902 -93 84.7823
8.10967 -93 85.125
8.96032 -93 85.4677
-7.72797 -93 84.9545
-12.8137 -93 87.7782
-18.2753 -93 93.7029
-17.4077 -93 92.4246
-19.196 -93 95.3848
-18.7793 -93 94.5907
-20.4407 -93 98.3401
-20.1603 -93 97.6174
-19.8799 -93 96.8948
-20.8836 -93 100.012
-20.6633 -93 99.1737
-21.3707 -93 102.798
-21.4671 -93 104.719
-20.3786 -93 111.749
-20.9684 -93 109.616
22.4048 -95.7663 102.127
24.164 -96.5661 106.944
22.4523 -95.6247 104.594
22.452 -95.6245 104.907
23.8216 -96.3469 105.536
-21.6856 -95.9278 98.0509
-21.5556 -95.9115 97.7073
4.54904 -105 67.1042
3.81932 -105 66.1891
21.7028 -6.00834 9.31505
21.7587 -5.6631 9.36157
22.4032 -2.93324 9.2288
22.4196 -2.34055 9.2771
-6.46521 20.4689 40
-6.64629 16.1511 40
9.05344 19.4927 40
7.37988 20.1612 40
8.57557 15.2055 40
21.5 -18.0782 84.9782
21.5 -17.1337 83.9585
-21.3467 2.25768 40
-21.4649 0.393466 40
-13.8864 -65 88.6025
-10.0955 -65 90.7529
-19.9621 -105 105
-19.7887 -105 107.632
-19.5725 -95.7284 93.6096
-18.8564 -95.8061 117.527
-16.1346 -105 116.757
-16.859 -105 115.734
-13.2714 -105 119.916
18.9197 -105 98.6246
19.2462 -105 99.6511
17.9651 -105 96.2876
18.5488 -105 97.5564
-18.6485 -104.367 99.8266
-19.0531 -104.991 98.9494
-21.8217 -95.6808 99.4125
-21.7876 -95.7426 99.0721
-21.7536 -95.8043 98.7317
-21.7196 -95.866 98.3913
-18.238 -104.371 98.5076
13.5558 -105 90.3389
-5.26797 -101.5 68.9834
-5.53894 -101.442 70.1142
2.40846 -105 85.1727
4.15942 -105 124.555
-19.0141 -95.7987 117.28
-17.4095 -105 114.774
-17.9164 -105 113.83
-0.419448 -105 85.0155
-8.21897 -97 80.8882
6.46977 -97 80.3575
7.69585 -97 80.7089
8.66258 -97 81.0403
9.70071 -97 81.4329
10.9134 -97 81.9752
12.7249 -97 82.9297
14.9731 -97 84.3794
1.59957 -105 124.922
-0.313492 -105 124.981
-16.28 -96.5552 86.7914
-14.444 -105 91.2136
-10.6114 -105 121.915
-11.9814 -105 121.008
23.3741 -96.5868 111.547
-10.7574 -97 143.125
-12.2115 -105 143.063
-12.2169 -105 66.9514
21.5 -66.338 105
21.5 -63.6338 104.974
17.399 -65 103.588
17.402 1.3704 40
21.5 -0.0264233 41.3792
21.5 -3.54538e-15 38.6312
19.8955 -1.69485 0
19.9477 -0.847424 0
21.1905 3.42916 40
-4.80237 24.5204 8.21176
-14.352 9.95539 40
-16.535 13.6877 40
18.8754 -10.2277 40
-10.8983 -65 86.5063
17.5 -12.7091 78.5897
17.5 -11.8888 77.4698
-4.57921 -65 121.868
-3.74519 -65 126.142
-15.1587 -65 89.8002
1.4453 -65 83.5676
-5.96893 -65 121.404
21.5 -33.468 96.8301
21.5 -32.2708 96.1491
-17.4158 -1.17667 40
8.90613 -65 120.025
9.2291 -65 124.4
4.30613 -105 85.4708
5.63082 -105 85.8478
-0.259524 -65 87.5186
-2.21279 -65 83.6461
21.5 -28.7312 93.9262
-20.8657 -95.2885 112.978
16.9313 -4.28589 40
21.1777 -3.50332 40
21.1971 -65 101.608
16.9567 -65 100.831
-10.6028 -65 123.672
-9.82882 -65 119.447
-20.16 -96.0615 93.9111
-17.0519 -65 118.056
5.6815 20.7007 40
19.9178 -65 113.01
20.5974 -65 111.041
5.23893 -36.1438 3.5
6.60581 -21.3124 9.56223
9.12661 -23.8006 8
-20.3541 -94.1854 112.783
-14.3958 -105 118.839
-15.3546 -105 117.787
-22.1898 -105 116.966
-22.6097 -105 115.868
-22.9805 -105 114.898
-21.6945 -96.1694 112.845
-21.7024 -96.0536 112.398
-21.7103 -95.9379 111.951
-21.7181 -95.8222 111.504
4.30603 -38.2006 3.5
-17.906 -96.4774 88.7217
-5.25924 36.0548 3.5
-5.48447 35.0681 3.5
11.8882 -65 87.1257
6.07245 -21.5137 9.50512
13.8815 -33.6951 8
-7.46416 -105 86.4651
5.29665 -19.2473 0
6.47474 -18.9121 0
-20.4538 -96.2281 94.0619
-19.8663 -95.895 93.7604
-4.32622 -96.0866 127.884
0.549041 -101.5 134.638
-4.79545 -100.185 121.8
-8.65086 -97 128.964
-9.96081 -97 128.451
-11.6043 -97 127.698
-13.6106 -97 126.555
22.9504 -95.8875 104.082
22.4526 -95.6249 104.28
21.8169 -93.8746 105.387
22.1338 -94.7492 105.773
21.211 -93 108.31
20.9999 -93 109.515
18.9899 -105 111.155
21.5 -4.63968 64.1074
21.5 -4.14918 62.8198
16.0248 14.2844 40
-20.7747 -65 110.431
-17.1938 -65 108.079
21.5 -59.5383 104.763
21.5 -58.1765 104.632
8.11545 -19.8748 40
21.5 -27.5751 93.144
21.5 -26.4529 92.3221
21.5 -56.8204 104.473
21.5 -55.469 104.291
21.5 -44.8215 101.779
21.5 -43.5192 101.34
0.526007 -21.4587 40
-19.6805 -65 113.621
-15.393 -65 113.232
-20.2782 -65 112.041
-11.2841 18.2611 40
-9.75908 19.1406 40
-1.89001 -105 124.872
21.5 -25.3381 91.49
21.5 -24.2474 90.6251
-3.03834 21.283 40
-3.90069 17.0151 40
-9.26597 -65 85.6342
14.4281 -15.9002 40
-15.1192 8.73364 40
21.5 -50.0907 103.265
21.5 -48.7645 102.928
21.5 -1.45544 53.6213
13.9006 -65 94.4416
9.83134 -19.0822 40
21.5 -1.17319 52.2848
21.5 -0.938059 50.9345
5.1812 -65 84.1678
3.31525 -65 83.791
21.5 -10.3343 75.1597
21.5 -9.60375 73.9827
21.5 -51.4252 103.554
15.7398 -14.5951 40
-21.3643 -65 107.104
21.5 -42.2271 100.869
21.5 -40.9411 100.379
15.9891 -65 90.6766
-16.3539 6.10267 40
5.66646 -65 88.4834
8.67082 -65 85.3415
12.0262 17.7799 40
21.5 -47.4418 102.578
21.5 -46.1295 102.19
15.4531 8.12218 40
18.1308 11.5461 40
-8.9587 -19.5061 40
21.5 -54.1159 104.071
21.5 -52.7621 103.835
21.5 -5.17107 65.3763
-3.71894 -98.6128 122.096
-8.0849 -105 123.274
-9.31749 -105 122.66
-19.9256 -96.9367 120.504
-8.14688 -19.864 12
-21.4176 2.92657 11.6973
10.7547 -41.3327 0
7.19419 -45.1827 8
3.56073 -46.9697 8
5.40373 -46.2528 8
-0.690352 -47.4463 8
-2.83125 -47.1322 0
-4.93862 -46.4337 0
-9.33489 -43.2974 8
-10.39 39.3003 8
-11.02 40.7944 8
-9.82499 42.6439 0
-2.66535 47.1634 8
-1.25431 47.4281 8
-15.3016 20.274 8.03925
-14.2272 21.132 8
-14.4726 32.1493 8
-13.4976 34.6992 8
-12.9871 36.0343 8
16.5222 -5.65129 40
19.651 -8.64164 40
13.7568 -10.7504 40
17.9944 -11.7512 40
6.33913 -21.4131 9.53368
10.5358 -13.9175 40
11.492 -18.1452 40
3.59265 -17.0821 40
5.10287 -16.7268 40
2.50205 -21.3259 40
-1.42331 -21.4217 40
-4.25137 -16.9388 40
-3.33364 -21.2257 40
-7.11893 -20.2565 40
-13.9633 -16.3382 40
-10.058 -14.2752 40
-12.4678 -12.2179 40
-16.6224 -13.5809 40
-20.3201 -6.92317 40
-15.9927 -7.07094 40
-20.6841 5.82062 40
-17.1552 3.25678 40
-19.4183 9.15409 40
-14.1168 16.2123 40
-12.516 12.1697 40
-10.3797 14.0344 40
10.9641 13.5969 40
12.0261 12.6596 40
13.9187 10.5342 40
21.5 -7.72155e-15 14.2547
21.5 -7.89897e-15 15.5175
21.5 -7.89897e-15 16.7965
21.5 -7.89897e-15 29.0504
21.5 -7.89897e-15 30.4194
21.5 -7.89897e-15 31.7881
21.5 -7.89897e-15 34.5251
21.5 -7.89897e-15 33.1568
21.5 -7.89897e-15 37.2624
21.5 -7.89897e-15 35.8936
17.5 -0.141252 44.1158
17.5 -0.062461 42.7463
17.5 -0.717188 49.5917
17.5 -0.532651 48.2237
21.5 -11.1042 76.3139
21.5 -14.4086 80.7951
21.5 -13.5445 79.7054
17.5 -21.081 87.9028
17.5 -20.0594 86.9566
21.5 -19.0611 85.9681
21.5 -23.1708 89.7409
21.5 -22.1116 88.8327
21.5 -35.9111 98.1224
21.5 -34.6834 97.485
21.5 -38.4024 99.3089
21.5 -37.1547 98.7206
17.5 -39.668 99.8478
4.65764 -98.1474 62.5279
0.399142 -101.5 64.6379
5.10304 -101.5 68.2608
-8.61179 -98.2643 68.7788
20.9192 8.66839 9.23911
22.9543 9.96662 0
22.5574 11.0047 0
22.1158 12.1596 0
21.6667 13.3342 0
-3.80883 -101.5 66.176
2.88237 -101.5 65.4366
2.06208 -101.5 65.0416
-2.92744 -98.1415 61.6781
15.3473 -19.8339 8.12392
18.3159 -7.94977 0
-1.30367 -101.629 64.6666
-2.29017 -105 65.1514
-3.16238 -105 65.5714
20.553 -93 111.188
-17.8047 -93 117.048
-4.45195 -38.0176 3.5
-3.69723 -93 126.17
-4.43448 -93 126.003
-5.17172 -93 125.837
-5.90897 -93 125.67
-2.29699 -43.6474 6.96728
-0.586157 -43.7548 6.80217
2.56038 -43.3921 6.83249
21.5 -87.769 105
1.04373 -43.6838 6.81108
-1.24319 -93 83.569
19.4436 -93 95.8568
19.9854 -93 97.1531
20.3944 -93 98.2582
20.6524 -93 99.1457
20.9103 -93 100.033
-5.22631 -36.1991 3.5
-5.45179 -35.2112 3.5
17.9986 -105 113.64
4.73816 -93 84.0389
5.57672 -93 84.2709
6.41528 -93 84.5029
16.5209 -93 91.2655
3.97926 -42.8785 6.83648
-2.67736 -19.7995 0
21.222 -95.7838 96.4145
21.0102 -95.5861 97.1289
21.1705 -95.6354 97.4433
21.3308 -95.6847 97.7576
17.5 -94.8343 105
21.5 -93 105
21.9045 -95.6245 99.9869
24.0894 -105 98.3295
24.3524 -105 99.4617
22.2662 -95.7707 101.102
17.5 -71.6906 105
17.5 -70.3517 105
21.0922 -93 100.995
21.2595 -93 101.971
22.423 -95.7131 102.779
22.4411 -95.66 103.432
11.4577 -22.7804 8
12.5447 -22.1713 8
13.344 -21.4749 8.09352
21.5 -77.0466 105
21.5 -90.4234 105
21.5 -91.7154 105
14.7442 -97 136.439
14.5274 -32.006 8
[...]
CELL_DATA 0
SCALARS CellEntityIds int 1
LOOKUP_TABLE default
