# vtk DataFile Version 2.0 
Created by AlgoHex
ASCII
DATASET UNSTRUCTURED_GRID
POINTS 2418 double
20 40 20
20 0 20
130 40 0
150 40 0
150 3.46945e-15 -4
130 0 0
77.005 20 -8
0 40 -4
0 0 -4
109.906 13.7166 -5.18369
73.3928 12.1388 -1.33815
-9.04312 31.1021 -8
161.361 3.54032 -4
160.487 30.1912 -8
75.3756 7.84067 12.1221
58.9863 7.6382 24.7724
38.7632 32.2021 42.3612
60.6249 7.58098 23.2397
109.335 27.1403 -5.41679
60.1944 30.0969 12.8039
100.165 11.1312 0.383127
77.8723 28.5192 -4.35115
70.4268 7.78417 15.9471
64.8716 11.9919 5.9695
-17.7091 10.7055 -4
54.3829 7.68726 29.3736
88.201 30.703 7.35236
53.9339 30.3136 18.4571
31.4871 7.85352 33.6898
81.0649 32.1408 7.87342
74.011 0 13.8244
70.5457 0 16.5654
75.3547 40 13.2499
67.1384 0 19.4014
68.8215 0 17.9729
145.608 4.21656e-16 -8
147.072 1.43759e-15 -8
148.536 2.45352e-15 -8
141.255 0 -8
142.704 0 -8
144.153 0 -8
6.53342 40 0
8.11353 40 0
9.69365 40 0
4.95213 40 -0.169954
20 23.6236 0
20 21.9547 0
20 20.2094 20
48.8189 20 15.651
50.9085 20 13.8976
146.383 40 0
148.192 40 0
75.8789 0 12.6644
78.8912 7.7372 9.06828
81.0114 7.78858 7.00306
83.7964 7.60839 3.5843
115.6 0 -8
117.259 0 -8
118.918 0 -8
-5.69271 39.039 -4
-1.89185 39.8478 -4
59.5143 20 6.67648
61.7815 20 4.77408
59.4469 0 25.2376
61.1335 0 23.6434
120.907 40 -8
122.611 40 -8
124.315 40 -8
165.786 7.91881 -4
78.4992 29.1893 18.0666
78.6754 29.2954 17.7113
44.4363 40 39.5266
169.592 16.6378 -4
169.424 15.2529 -4
169.928 19.4074 -4
169.76 18.0226 -4
168.952 13.9831 -4
166.383 31.2161 -4
167.514 29.5773 -4
58.6342 40 24.2305
159.109 37.6803 -4
-19.3426 15.0127 -4
-18.9342 13.9359 -4
-19.6823 17.3835 -4
-19.537 16.1869 -4
20 8.44626 20
20 5.0608 20
111.163 16.0461 -5.1311
110.744 15.2696 -5.14863
110.325 14.4931 -5.16616
87.2573 40 14.3967
88.106 40 13.1499
169.505 24.0807 -4
169.697 22.4942 -4
54.9016 10.2415 37.0502
49.798 8.326 36.0773
50.2533 7.89374 34.2393
51.8972 7.88883 32.5476
53.1608 7.77266 30.9844
20 18.6058 0
20 16.9236 0
20 15.2415 0
-16.4681 31.0924 -4
-17.2656 29.937 -4
-17.9267 28.7208 -4
-18.4169 27.4283 -4
-15.6706 32.2478 -4
98.3308 40 7.07532
117.669 40 10.3472
118.943 40 9.27794
114.215 40 -8
115.871 40 -8
117.544 40 -8
119.217 40 -8
71.7132 7.6344 14.394
73.524 7.67011 13.1483
4.43482 0 -5.99361
1.47069 0 -3.82842
2.94138 0 -3.65684
15.975 0 0
17.3166 0 0
18.6583 0 0
86.4415 40 15.4682
161.495 36.3409 -4
163.479 34.5831 -4
79.4759 0 9.57921
62.5791 7.65126 21.8006
64.7009 7.66533 20.2849
66.5347 7.72181 18.7682
-19.5662 23.5725 -4
101.215 40 4.17251
126.028 40 -8
127.747 40 -8
11.2411 40 0
12.7807 40 0
14.3203 40 0
131.159 40 -8
132.838 40 -8
134.518 40 -8
141.232 40 0
142.918 40 0
144.604 40 0
111.429 26.8512 -7.19107
111.243 25.8763 -6.38213
111.057 24.9014 -5.5732
110.871 23.9265 -4.76426
103.28 40 2.38613
46.1979 26.6495 47.8612
45.7749 25.839 48.8165
47.2356 26.322 52.4581
20 38.3657 20
20 36.7315 20
151.773 39.8574 -2.21918
153.534 39.6476 -4
97.852 0 10.8377
73.6576 40 14.2793
65.278 40 19.4134
68.2706 40 17.3058
167.148 9.8924 -4
71.7305 20 -3.57419
1.6608 40 -4.19376
3.3216 40 -3.93056
-14.7572 33.4512 -4
-13.0082 35.0006 -4
16.1728 40 -8
17.8354 40 -8
19.498 40 -8
110.367 0 -8
112.123 0 -8
113.879 0 -8
155.415 0.819472 0
156.592 1.26611 0
157.77 1.71276 0
79.5565 29.8258 15.9348
73.133 32.0917 14.3567
130 28.8047 0
130 27.1937 0
130 25.5826 0
130 8.93304 0
130 7.16364 0
130 5.39423 0
104.283 40 0.175029
-11.2547 36.5175 -4
-9.42599 37.5086 -4
-13.2533 5.21653 -4
-11.1587 3.43051 -4
-10.0068 2.80619 -4
130 3.60075 0
130 1.80038 0
130 19.0778 0
130 17.4082 0
130 15.7386 0
78.067 23.7632 -8
77.89 23.136 -8
77.713 22.5088 -8
77.536 21.8816 -8
77.359 21.2544 -8
77.182 20.6272 -8
-7.59732 38.4998 -4
64.0257 20 2.89092
130 33.6146 0
130 32.0138 0
130 30.413 0
120.593 0 -8
122.298 0 -8
20 13.5529 0
20 11.8212 20
20 10.1382 20
130 38.4049 0
130 36.8097 0
130 35.2146 0
75.6762 32.1334 12.3163
76.6265 32.2569 11.3152
77.6299 32.3374 10.3094
78.6831 32.2513 9.46757
79.7364 32.1652 8.62577
66.2817 20 0.997963
68.8255 20 -1.13654
10.3266 0 -8
11.808 0 -8
13.2895 0 -8
14.7709 0 -8
100.375 29.5986 -0.985081
153.998 0.420458 -6.01629
72.2368 0 15.2069
130 23.9657 0
130 22.3455 0
130 20.7253 0
165.251 32.855 -4
169.89 20.9076 -4
130.685 0 -8
132.248 0 -8
133.81 0 -8
159.502 2.41628 -7.59853
108.463 12.7336 -4.94909
109.185 13.2251 -5.06639
107.019 11.7506 -4.71449
107.741 12.2421 -4.83179
47.1576 40 35.4749
155.245 39.1653 -4
156.955 38.6829 -4
-19.7204 22.3027 -4
-19.8746 21.0329 -4
-19.9729 19.7768 -4
-19.8276 18.5801 -4
20 3.37373 20
20 1.68686 20
-18.5259 12.8591 -4
-18.1175 11.7823 -4
-6.22747 1.11182 -4
-4.7164 0.685695 -4
-3.20534 0.25957 -4
114.946 23.3737 -8
115.287 22.1669 -8
115.627 20.96 -8
20 28.5097 20
20 26.8591 20
20 25.2892 0
151.342 0.107906 -4
152.683 0.215812 -4
136.306 40 0
137.934 40 0
139.561 40 0
78.8516 29.4014 17.356
79.0278 29.5075 17.0007
79.2041 29.6136 16.6454
56.3259 0 28.4614
-8.85492 2.18186 -4
-7.70303 1.55754 -4
5.89566 0 0
7.34676 0 0
8.79786 0 0
33.9985 20 28.0867
35.9983 20 26.4087
-3.78776 39.5762 -4
-1.60293 0.128928 -4
135.554 0 0
136.992 0 0
138.43 0 0
139.868 0 0
55.6013 25.3409 62.4279
168.472 12.7167 -4
167.992 11.4502 -4
62.1136 40 21.6917
77.7139 0 11.4994
72.3197 31.9742 15.0783
101.656 0 6.31373
104.583 3.55271e-15 0.36362
100.882 29.9412 -1.98774
101.52 30.0921 -2.8704
102.157 30.2429 -3.75307
102.88 30.1142 -4.1306
103.638 29.8682 -4.29642
104.396 29.6223 -4.46223
105.154 29.3763 -4.62804
38.0074 20 24.7229
40.0264 20 23.0287
42.2272 20 21.1821
45.06 0 39.8605
48.0611 0 36.7931
31.9027 20 29.8454
55.6013 23.6461 62.4279
55.6013 21.9435 62.4279
55.6013 20.2408 62.4279
130 14.0564 0
130 12.3641 0
130 10.6718 0
115.823 19.7345 -8
115.457 18.4362 -8
115.09 17.1379 -8
114.724 15.8397 -8
94.3125 40 11.766
44.5023 20 19.273
46.679 20 17.4465
45.2677 15.5595 50.1129
105.17 40 -1.87217
113.67 40 13.7022
115.102 40 12.5009
54.5393 40 27.628
50.3078 40 31.6473
55.7715 7.59797 27.791
57.451 7.6942 26.3201
53.6168 0 31.7835
55.1142 0 30.1859
49.9565 0 34.989
51.832 0 33.3338
168.127 28.1918 -4
105.579 0 -8
108.048 0 -8
63.0801 0 22.2092
64.9517 0 20.8171
70.8756 40 15.7164
124.002 0 -8
125.697 0 -8
127.377 0 -8
55.2025 20 10.2945
57.3388 20 8.50191
91.2911 40 12.8117
92.3377 0 15.114
55.6013 18.5371 62.4279
55.6013 16.8333 62.4279
45.4173 16.729 50.2911
20 33.4519 20
20 30.16 20
-18.907 26.1358 -4
-19.3972 24.8434 -4
116.386 40 11.4233
46.3207 12.8265 47.2423
45.9154 13.7095 48.2836
45.5102 14.5925 49.3248
81.5333 0 6.93496
77.1599 19.4512 -8
77.3148 18.9024 -8
77.4696 18.3536 -8
77.6245 17.8048 -8
77.7794 17.256 -8
77.9342 16.7072 -8
78.0891 16.1584 -8
77.4394 40 12.4774
79.0451 40 11.9262
96.3772 40 10.0129
168.633 26.859 -4
169.138 25.5263 -4
57.8048 0 26.8651
53.0447 20 12.1051
93.6271 1.67957 30.5205
95.465 1.67957 28.9783
83.5269 28.2203 38.9955
89.0896 20.051 34.3279
104.495 36.8482 21.4015
70.5633 11.5437 49.8733
93.457 36.7549 30.6632
101.842 27.1193 23.6271
101.505 25.45 23.91
82.6121 32.028 7.2275
86.98 1.66772 36.0981
85.1238 14.9495 37.6556
84.4465 13.2848 38.224
94.8259 8.39401 29.5146
10.3748 12.3079 0
11.9358 12.2003 -8
11.9161 10.4524 -8
13.4321 13.8301 -8
7.54166 10.7952 0
8.94768 10.6664 0
8.96325 12.4113 0
7.60095 14.2878 -8
7.61836 12.576 -8
51.1184 18.509 -8
15.9328 13.7042 0
15.9307 11.9957 0
18.0111 11.9484 -8
31.1566 10.1084 -8
155.358 32.321 0
155.545 30.6725 0
156.719 32.443 0
156.905 30.7945 0
157.632 27.6759 0
157.716 26.3858 0
159.987 26.4526 0
160.158 23.9316 0
160.07 25.1625 0
97.8329 5.06783 26.9914
97.5535 3.37644 27.2259
146.954 2.1721 -8
148.418 2.1721 -8
142.7 1.91717 -8
-12.5232 21.1686 0
8.2925 35.3063 -8
6.58084 38.4433 0
6.62826 36.8865 0
8.16095 38.4433 0
8.20837 36.8865 0
5.03448 38.4399 -8
3.42826 36.9164 0
5.02842 36.9013 0
6.66643 35.3367 0
3.43043 38.4438 -8
69.6238 16.0616 -8
151.875 13.2712 -8
150.991 16.0843 -8
152.738 16.4663 -8
152.331 14.8193 -8
63.551 4.99375 55.7574
66.642 4.96148 53.1637
17.9049 35.165 -8
19.6003 33.5273 -8
19.5765 31.9036 -8
100.702 22.0771 24.5841
100.218 20.3782 24.9898
91.2862 20.2159 12.4668
88.5666 33.3969 34.7668
40.8422 21.8828 -8
80.156 21.5735 41.8241
81.6593 19.8926 40.5627
146.237 38.4788 0
148.046 38.4788 0
147.9 36.9577 0
86.9407 11.8564 11.9693
117.215 2.03785 -8
95.607 3.36585 28.8591
98.8119 27.049 26.1699
98.4182 25.3783 26.5003
29.1906 23.5603 -8
31.4078 23.5558 -8
31.339 21.8837 -8
33.6937 25.2234 -8
-5.32312 37.6758 0
-3.61538 38.0153 0
-1.71357 38.2462 0
-1.52534 36.7234 0
-1.3371 35.2006 0
91.7988 15.0679 32.0546
93.4041 15.1032 30.7076
60.0051 8.38624 58.7327
63.6988 8.3265 55.6333
63.9434 9.98641 55.4281
67.005 8.26467 52.8591
69.8563 8.23476 50.4666
90.3221 3.33844 33.2937
53.7338 15.1569 -8
53.654 13.4694 -8
56.6192 13.5023 -8
63.6168 14.7149 5.00542
59.5783 18.9272 6.85635
61.8455 18.9272 4.95395
61.9096 17.8543 5.13381
40.3656 11.7722 -8
40.3204 10.0872 -8
115.91 23.4571 -8
81.9257 1.65969 40.3391
20 35.0972 20
119.418 11.6186 -8
119.201 9.78416 -8
120.958 11.2035 -8
122.62 11.0563 -8
121.815 22.3215 -8
123.177 23.8897 -8
123.253 22.3089 -8
124.781 22.3354 -8
114.264 9.03935 -8
61.1693 23.889 6.12633
60.6995 22.5816 6.23055
-12.0177 30.0149 0
-11.6896 29.0925 0
-11.3615 28.17 0
-11.3724 29.8136 -8
-11.6375 28.8044 -8
-11.9027 27.7952 -8
107.65 36.8585 18.7542
116.666 28.1502 -8
117.686 31.5288 -8
117.917 29.9101 -8
119.398 30.0514 -8
116.347 33.7186 11.4563
35.8215 18.5199 -8
35.7931 16.8382 -8
74.3713 4.93175 46.678
152.491 28.6022 -8
152.417 27.2156 -8
152.342 25.8291 -8
153.924 29.1184 0
154.345 31.3319 -8
154.335 29.784 -8
152.208 30.7281 0
155.85 22.3572 0
157.879 22.5102 0
157.687 21.2685 0
157.495 20.0267 0
113.916 4.46591 -8
115.547 4.29085 -8
115.568 2.11379 -8
117.178 4.11579 -8
120.929 38.3612 -8
122.633 38.3612 -8
122.655 36.7224 -8
117.427 36.5482 -8
117.485 34.8545 -8
117.543 33.1608 -8
119.219 34.9519 -8
120.953 35.0492 -8
166.369 15.6954 -8
165.662 14.5736 -8
145.465 24.4315 -8
147.111 24.4573 -8
-9.18041 36.2238 0
-7.29497 36.9392 0
[...]
CELL_DATA 0
SCALARS CellEntityIds int 1
LOOKUP_TABLE default
