# vtk DataFile Version 2.0 
Created by AlgoHex
ASCII
DATASET UNSTRUCTURED_GRID
POINTS 3133 double
14.6718 18.1116 21.35
15.7899 18.4749 21.35
15.7899 19.6505 21.35
14.6718 20.0138 21.35
13.9809 19.0627 21.85
16.4802 19.0525 21.35
15.2035 18.949 21.6017
14.4691 19.0634 21.35
14.9809 20.5627 21.6214
13.8066 18.9478 21.6567
16.4162 19.4984 22.6
16.4809 19.0627 23.03
16.4629 18.8416 22.6133
16.4809 19.0627 22.444
15.6195 19.2271 23.0778
14.5409 19.0627 22.975
15.626 19.0627 23.35
14.3357 19.0627 23.35
15.9171 18.2792 21.5912
14.7524 20.1703 21.5767
14.96 19.3118 21.522
13.8568 19.1877 21.5767
14.9809 17.5627 21.6833
15.3576 18.9415 22.6853
15.3773 18.8718 22.975
14.5146 18.0323 21.5767
14.5946 17.8739 21.6436
16.117 18.9646 22.4787
15.9113 19.0627 22.444
15.7691 19.0627 22.444
14.9661 18.8131 21.6728
15.3459 18.9493 22.4929
15.3314 19.1724 22.4891
15.6478 19.0627 22.444
15.1394 19.256 22.7425
14.5775 20.2396 21.5605
14.7262 17.9092 21.5454
15.9984 18.4655 21.6567
15.2309 19.0627 21.61
15.2309 19.0627 22.2928
15.205 19.1733 22.8514
15.8633 19.8458 21.6567
14.3255 19.2807 22.4828
16.3391 18.4267 21.7623
16.4292 18.6729 21.35
14.7337 18.0599 21.5358
16.4682 18.8719 22.0593
16.4611 18.8276 22.1337
16.4565 18.7988 22.2039
16.4552 18.7918 22.2682
13.8913 19.1801 21.7275
13.8567 19.1821 21.7157
13.4896 18.9297 21.85
14.7613 19.1391 21.3982
14.7689 19.1582 21.4103
14.7765 19.1773 21.4224
15.8062 18.4822 21.85
15.8225 18.4894 21.85
15.8388 18.4967 21.85
16.4722 19.1949 21.35
14.5025 17.6444 21.85
14.4044 17.678 21.3586
14.7155 17.5864 21.5649
14.5928 17.6156 21.5534
16.3483 18.9595 23.0283
16.3594 18.9681 23.0285
16.3704 18.9767 23.0286
16.3815 18.9853 23.0288
16.3925 18.9939 23.0289
15.4257 19.0627 22.444
15.0591 18.8351 21.5791
15.0436 18.8314 21.5947
15.0281 18.8278 21.6103
15.0126 18.8241 21.6259
14.9971 18.8205 21.6415
14.579 18.8957 22.975
14.5663 18.9514 22.975
14.5536 19.007 22.975
14.6431 18.7983 22.975
14.6057 18.8451 22.975
13.6836 19.8153 21.35
13.7187 19.8679 21.35
13.7539 19.9206 21.35
13.7882 19.9719 21.85
13.5972 19.641 21.85
13.6265 19.7005 21.35
13.654 19.7562 21.85
14.3082 19.0627 22.8255
14.311 19.0627 22.8786
14.3138 19.0627 22.9318
15.4304 19.6225 21.85
15.3734 19.6655 21.85
15.8731 19.6134 21.85
14.7502 18.0048 21.6451
14.1656 20.3205 21.5871
14.1213 20.2885 21.35
16.4539 18.7859 22.3322
16.4547 18.7904 22.39
16.4575 18.8052 22.4465
15.6328 18.5585 22.6
15.7293 18.5669 22.6
15.0561 17.5661 21.5535
16.4541 19.3388 22.9253
16.4791 19.1113 22.7359
14.7215 18.7115 22.975
14.7711 18.6876 22.975
14.8208 18.6636 22.975
14.8705 18.6397 22.975
14.9816 18.8168 21.6571
14.7537 19.12 21.3862
15.3445 18.9473 22.6981
15.2821 18.8779 22.975
15.267 18.7335 22.975
14.607 20.0275 21.85
14.5481 20.0427 21.8469
14.775 20.5469 21.5541
14.696 20.5322 21.35
15.2112 18.6975 22.975
15.1553 18.6706 22.975
15.0994 18.6437 22.975
15.6229 18.5576 22.4701
15.2309 19.0627 22.1954
15.2309 19.0627 22.2441
15.3183 19.7004 21.85
15.2665 19.7213 21.85
15.2147 19.7422 21.85
15.163 19.7632 21.85
16.0019 19.7042 21.35
15.9987 19.7353 21.35
15.9954 19.7664 21.35
15.1302 17.5706 21.6288
14.3007 19.0627 22.6821
14.305 19.0627 22.7642
15.5356 17.6699 21.4085
15.4693 17.646 21.559
15.4033 17.6238 21.5897
16.2754 19.0627 22.444
15.2711 19.3868 22.975
15.2194 19.4239 22.975
15.1684 19.4485 22.975
15.1174 19.4731 22.975
15.3041 18.9672 22.975
14.9132 20.5602 21.4968
14.8454 20.5557 21.5136
15.9347 18.2903 21.6009
15.9546 18.3036 21.5724
16.206 18.2026 21.85
14.3415 17.7068 21.5656
14.2804 17.7411 21.5793
14.2194 17.7755 21.593
14.16 17.811 21.85
14.102 17.8497 21.85
14.2829 19.0627 22.343
14.2847 19.0627 22.3777
14.4765 18.5456 21.85
14.5312 18.5032 21.85
14.586 18.4608 21.85
15.8626 18.2883 21.85
15.7892 18.3316 21.4156
15.7846 18.3387 21.391
15.7799 18.3459 21.3663
15.7775 18.3572 21.35
15.7859 18.344 21.85
14.8652 19.4831 22.975
14.8186 19.4607 22.975
14.7721 19.4383 22.975
14.7255 19.4159 22.975
14.6878 19.3833 22.975
14.525 20.4906 21.5559
14.9672 19.7853 21.85
14.8784 19.773 21.85
15.9208 18.5173 21.3679
15.9417 18.5067 21.3902
15.9626 18.4961 21.4125
16.2808 19.0469 21.35
16.3809 19.0501 21.35
14.6115 18.1124 21.4966
14.7841 19.1964 21.4344
14.7917 19.2155 21.4465
16.4035 19.0025 23.029
16.4146 19.0111 23.0292
16.4256 19.0197 23.0293
16.4367 19.0283 23.0294
16.4477 19.0369 23.0296
16.4588 19.0455 23.0297
16.4698 19.0541 23.0299
13.9632 20.1611 21.35
14.015 20.2065 21.85
14.059 20.2451 21.35
15.9637 19.6223 21.5767
15.7773 19.7752 21.8494
15.7811 19.7341 21.85
15.7855 19.6923 21.85
15.2137 19.1365 22.8926
15.2223 19.0996 22.9338
15.3242 19.3202 22.975
14.2594 19.0627 21.8943
14.2617 19.0627 21.9385
16.374 19.611 21.85
15.4226 18.5973 23.35
15.3314 18.8142 23.35
15.3742 18.8639 21.35
15.4407 18.9309 21.35
15.5363 18.9675 21.35
15.6243 18.9916 21.35
13.5352 18.6651 21.35
13.5063 18.8037 21.85
15.7928 19.7909 21.8285
15.8083 19.8065 21.8076
15.8238 19.8221 21.7867
13.6684 18.34 21.85
13.6387 18.4002 21.85
13.6081 18.4621 21.35
14.2774 19.0627 22.2386
14.2793 19.0627 22.2734
14.2811 19.0627 22.3082
14.575 19.1217 21.35
14.6529 19.0922 21.35
15.8345 17.832 21.85
15.7775 17.7952 21.85
15.7198 17.7589 21.6866
13.5812 18.5278 21.5155
13.5586 18.5962 21.35
15.5423 19.0799 22.451
14.6174 20.5156 21.5318
16.4729 18.9223 21.9759
13.5528 19.5122 21.85
13.5747 19.5769 21.85
14.3293 18.7603 21.85
14.3041 18.8213 21.85
14.264 19.0627 21.9828
14.2663 19.0627 22.0271
15.5284 18.5494 22.6
15.2521 19.5257 23.35
15.3589 19.5072 23.35
14.8885 19.6829 23.35
15.2658 19.2044 22.6339
16.2517 18.9312 22.5539
16.3284 19.506 22.6
16.3723 19.5022 22.6
13.899 18.9513 21.3687
13.8647 18.9458 21.4018
13.5313 19.4475 21.85
15.5782 18.903 23.35
15.3792 18.8719 23.35
14.5401 20.07 21.5586
14.5245 20.1078 21.552
14.0453 17.8923 21.35
13.9969 17.9348 21.85
13.9477 17.9779 21.35
16.3451 19.6806 21.35
16.3039 19.7641 21.35
16.4233 19.47 21.35
16.3849 19.583 21.35
16.3734 18.5128 21.85
14.4965 18.7769 23.35
14.6804 18.7515 22.975
13.956 19.0197 21.85
13.9312 18.9767 21.85
14.965 19.4917 22.975
14.9143 19.4917 22.975
15.0664 19.4917 22.975
15.0157 19.4917 22.975
15.6603 17.7264 21.6021
15.5976 17.6968 21.4732
14.9059 17.5656 21.5131
14.8206 17.5727 21.5173
13.8313 20.022 21.85
13.8735 20.0701 21.35
13.9188 20.1218 21.85
14.3275 19.0627 23.1935
14.3302 19.0627 23.2457
14.3329 19.0627 23.2978
15.3379 17.6074 21.614
15.2732 17.5924 21.6293
15.2032 17.5807 21.6324
16.4209 19.4821 22.6798
16.4738 19.2064 22.6296
15.1614 20.5503 21.6963
15.101 20.5575 21.7
15.0408 20.5601 21.5283
14.5346 18.6025 23.35
14.6431 18.7983 23.35
16.0335 19.04 22.452
14.3626 19.2437 23.35
14.4517 19.1532 23.35
16.2171 19.9071 21.85
16.195 19.9397 21.35
16.4532 18.7765 22.6265
16.4362 18.7039 22.7138
15.342 20.5177 21.6593
15.2824 20.5314 21.6273
15.2219 20.542 21.6653
15.2309 19.0627 21.9425
15.3289 19.3142 23.35
14.4775 19.3689 23.35
14.5396 19.2518 23.35
14.6563 19.3437 22.975
14.6247 19.3041 22.975
14.5931 19.2645 22.975
14.5728 19.2028 22.975
14.5569 19.1327 22.975
16.118 19.1965 22.5422
16.1591 19.195 22.5297
16.1927 18.9273 22.5741
15.1553 19.2399 22.6811
16.3078 19.1888 22.5122
16.324 18.619 22.6
16.3701 18.623 22.6
15.6339 19.0627 23.2007
15.6373 19.0627 23.136
15.6356 19.0627 23.1684
16.101 20.0555 21.35
14.7547 20.1335 21.7112
14.7469 20.1682 21.7124
14.2686 19.0627 22.0703
14.2709 19.0627 22.1132
14.2731 19.0627 22.1561
14.2754 19.0627 22.1989
14.3193 19.0627 23.0369
14.322 19.0627 23.0891
14.3247 19.0627 23.1414
15.8256 18.5754 22.6
15.2309 19.0627 21.8653
15.9802 19.0384 21.35
13.5047 19.314 21.85
13.518 19.3808 21.85
16.2171 18.9768 22.4879
15.2309 19.0627 22.1467
15.6124 19.5687 22.6
15.5177 19.577 22.6
15.9813 20.1763 21.6566
15.9154 20.2321 21.5915
15.2201 19.6229 23.35
15.1018 19.5131 23.35
15.8907 17.8717 21.85
13.7727 18.1767 21.35
13.7366 18.2307 21.35
13.7017 18.2829 21.85
13.4944 19.2622 21.35
14.9264 18.6337 22.975
14.3555 20.4255 21.5659
14.2596 20.3726 21.5816
15.0754 18.5177 23.35
13.9602 19.0985 21.85
13.9395 19.1343 21.85
13.9189 19.1701 21.85
14.5388 19.5277 23.35
14.6456 19.3303 23.35
13.8999 18.0252 21.85
13.8571 18.074 21.85
13.8144 18.1227 21.85
16.1573 19.045 22.4503
16.4778 19.0003 21.7943
16.4755 18.9603 21.893
15.4413 19.251 23.35
15.6321 19.0627 23.2343
15.6301 19.0627 23.2729
15.6281 19.0627 23.3114
16.3299 19.0519 22.4488
16.4098 19.0627 22.444
16.0775 19.0432 21.35
16.1761 19.0468 21.35
13.4827 19.0903 21.35
13.4883 19.1768 21.35
14.6542 20.2484 21.5757
14.6244 20.25 21.5601
15.4233 18.9127 22.6211
15.4101 18.9184 22.6339
15.397 18.9242 22.6468
15.3839 18.93 22.6596
15.3707 18.9358 22.6724
15.6821 20.3854 21.573
15.6256 20.4164 21.5844
15.5726 20.439 21.5884
15.2309 19.0627 21.9941
15.2309 19.0627 22.0457
15.2309 19.0627 22.0972
14.4605 18.9811 23.35
14.3802 18.8996 23.35
15.1541 18.5638 23.35
15.8494 19.5479 22.6
15.2309 19.0627 21.7693
16.4714 18.9187 21.35
16.4573 18.8071 22.9388
16.467 18.8678 22.9786
16.4801 19.0476 21.5251
16.4797 19.0311 21.67
15.778 18.3621 21.85
15.781 18.3903 21.85
15.784 18.4185 21.85
15.7869 18.4467 21.85
15.1102 18.8554 21.7017
15.0746 18.8387 21.5634
14.9087 18.4241 23.35
15.0048 18.4241 23.35
14.7106 19.563 23.35
14.7074 19.4385 23.35
14.8512 19.5212 23.35
14.7452 19.6196 23.35
16.4765 18.9487 22.7014
16.4757 18.9403 22.6811
14.5604 18.0909 21.6233
14.536 18.0626 21.6006
15.0338 19.4917 23.35
14.9779 19.4917 23.35
16.4394 19.4098 22.8463
15.2497 18.5074 23.35
15.2538 18.6634 23.35
15.728 19.5586 22.6
15.8556 20.2778 21.5659
15.0986 19.7712 21.85
15.0341 19.7793 21.85
14.7134 20.0599 21.85
14.755 20.1061 21.85
14.355 18.6998 21.85
14.3947 18.6479 21.85
14.4343 18.5959 21.85
16.4477 18.75 22.8967
14.5127 18.8747 23.35
15.5194 20.4613 21.5879
15.4642 20.4822 21.5676
15.404 20.4993 21.5434
15.7127 19.0042 21.35
15.7986 19.0219 21.35
15.8882 19.0301 21.35
15.7963 20.3206 21.5476
15.7392 20.353 21.5603
14.5714 17.8927 21.5504
14.5482 17.9114 21.5708
15.0422 18.6337 22.975
14.9843 18.6337 22.975
13.7522 19.1184 21.5851
13.7416 19.0906 21.5789
[...]
CELL_DATA 0
SCALARS CellEntityIds int 1
LOOKUP_TABLE default
