# vtk DataFile Version 2.0 
Created by AlgoHex
ASCII
DATASET UNSTRUCTURED_GRID
POINTS 24100 double
29.9268 0 -378.186
-31.8148 0 -261.132
-31.8148 3.19795e-14 261.132
29.9268 4.63144e-14 378.186
-190.068 0 -261.132
-251.81 -10.124 -378.04
-251.81 4.63144e-14 378.186
-190.068 3.19795e-14 261.132
-240.695 3.39202e-14 276.979
-240.695 0 -276.979
-274.229 -4.83188e-14 394.553
-274.229 -32.9274 393.176
-277.176 -4.52572e-14 369.553
-277.176 -164.403 330.97
-245.545 -124.996 248.364
-277.176 -350.281 117.78
-245.545 -264.005 87.2344
-277.176 -350.893 115.945
-277.176 -330.97 -164.403
-245.545 -248.364 -124.996
-277.176 -117.78 -350.281
-245.545 -87.2344 -264.005
-277.176 0 -369.553
-274.229 0 -394.553
-274.229 -40.165 -392.503
-274.229 -69.9561 -388.301
-274.229 -140.384 -368.733
-274.229 -168.072 -356.964
-274.229 -231.035 -319.835
-274.229 -254.734 -301.301
-274.229 -305.943 -249.141
-274.229 -324.037 -225.104
-274.229 -360 -161.468
-274.229 -371.257 -133.567
-274.229 -389.524 -62.7908
-274.229 -393.176 -32.9274
-274.229 -392.503 40.165
-274.229 -388.301 69.9561
-274.229 -368.733 140.384
-274.229 -356.964 168.072
-274.229 -319.835 231.035
-276.34 -281.812 276.77
-274.229 -225.104 324.037
-274.229 -161.468 360
-274.229 -133.567 371.257
-274.229 -62.7908 389.524
21.3513 0 279.957
21.3513 0 -279.957
52.3456 57.8792 390.284
55.2933 4.52572e-14 369.553
55.2933 115.945 350.893
23.662 87.2344 264.005
55.2933 330.104 166.134
23.662 249.015 123.694
55.2933 350.893 -115.945
23.662 264.005 -87.2344
55.2933 166.134 -330.104
23.662 124.996 -248.364
55.2933 0 -369.553
52.3456 45.106 -391.966
52.3456 111.852 -378.366
52.3456 145.017 -366.936
52.3456 235.046 -316.899
52.3456 309.057 -245.267
52.3456 362.005 -156.92
52.3456 390.284 -57.8792
52.3456 394.423 10.1129
52.3456 391.966 45.106
52.3456 378.366 111.852
52.3456 366.936 145.017
52.3456 316.899 235.046
52.3456 271.748 286.05
52.3456 245.267 309.057
52.3456 156.92 362.005
-223.815 0 -260.823
-213.003 0 -239.16
-213.003 2.92887e-14 239.16
-223.815 3.29309e-14 260.823
-102.104 516.71 7.71667
-125.31 513.986 -49.7053
-101.73 511.245 -75.2103
-84.0587 506.685 -91.1711
-78.3486 507.885 -77.7858
-40.3939 500.248 -34.8873
-83.1787 514.628 7.96208
-92.6855 515.899 10.4604
-117.871 516.81 -5.62266
-98.3982 520.513 18.2716
-107.414 516.031 31.0242
-111.921 514.74 48.2555
-126.797 535.658 80.1477
-29.9189 494.632 -38.6627
-63.6222 520.405 -100.232
-43.5165 487.554 -123.164
-153.197 511.595 -1.44182
-179.461 501.627 27.6082
-193.078 494.743 28.1267
-192.875 492.628 -54.706
-124.616 492.863 -181.642
-99.4517 498.604 -211.997
-91.0717 497.583 -213.378
-83.4092 523.654 -135.319
-100.555 459.047 -237.134
-73.3651 401.688 -318.671
-102.104 370.825 -359.912
-91.4011 306.086 -415.237
-83.8942 305.34 -414.481
-33.84 361.872 -355.286
-62.6964 381.014 -338.872
-92.6855 372.192 -357.399
-117.596 246.104 -454.517
-124.288 221.335 -479.633
-99.4517 202.662 -502.47
-87.1035 195.102 -490.714
-83.1787 264.209 -441.7
-129.721 134.254 -511.347
-120.442 96.0761 -507.721
-123.691 86.5404 -521.204
-87.3152 60.1007 -519.467
-73.3651 58.7017 -509.371
-43.0323 100.371 -492.534
-87.9062 144.317 -505.523
-115.249 139.072 497.886
-122.851 172.829 486.808
-97.9448 230.18 462.368
-43.0166 172.767 472.026
-95.5678 125.543 506.029
-99.8362 266.819 471.561
-116.222 273.836 453.117
-115.673 276.75 436.611
-124.282 305.343 429.212
-101.73 320.756 405.146
-91.4011 321.868 403.128
-115.249 369.383 361.646
-122.851 393.078 335.174
-101.73 414.686 308.323
-91.4011 415.237 306.086
-83.8942 414.481 305.34
-73.3651 411.777 305.522
-43.0166 385.634 322.403
-83.1787 358.267 369.527
-102.104 443.625 265.038
-115.249 450.398 253.72
-122.954 471.834 210.279
-83.8942 479.386 187.66
-83.4092 465.965 274.594
-115.249 500.718 128.503
-115.673 504.423 113.039
-120.442 507.721 96.0761
-122.954 510.181 80.9938
-101.73 513.29 59.6723
-91.4011 512.649 57.4597
-40.3939 492.232 95.7751
-134.678 525.338 -55.4632
-147.583 511.573 -37.5833
-142.917 521.929 -140.294
-129.93 515.071 -140.034
-107.414 506.477 -103.592
-113.732 519.093 -93.5562
-109.996 519.198 -74.2675
-111.561 512.448 -68.4467
-131.136 482.142 -183.221
-144.076 479.295 -184.831
-127.895 442.334 -265.95
-115.359 446.051 -261.281
-111.921 469.906 -215.58
-111.561 477.271 -198.746
-124.505 481.727 -186.176
-149.308 355.774 -375.286
-129.93 376.047 -378.808
-111.561 409.57 -315.501
-119.019 415.357 -307.508
-178.851 277.301 -419.247
-133.122 253.133 -449.103
-107.414 284.883 -431.384
-111.561 313.956 -410.755
-115.359 130.652 -500.159
-98.7734 153.292 -501.322
-113.829 203.945 -502.152
-126.797 216.055 -496.662
-124.394 50.3122 521.917
-144.076 54.4826 510.801
-129.53 138.827 505.251
-107.414 103.592 506.477
-110.033 74.1438 519.254
-111.561 68.4467 512.448
-125.581 272.402 468.199
-100.591 248.371 453.068
-114.054 226.041 479.789
-110.357 211.177 482.833
-131.136 301.765 418.292
-173.29 338.736 374.517
-111.921 329.855 398.098
-125.25 449.791 253.665
-120.581 450.305 253.416
-100.591 441.63 268.183
-107.414 431.384 284.883
-109.816 420.206 309.683
-111.561 410.755 313.956
-181.364 488.751 171.001
-143.151 497.295 129.509
-129.721 511.347 134.254
-115.359 500.159 130.652
-110.576 491.524 196.963
-111.561 478.016 196.947
2.62562 433.335 -189.046
-27.2582 464.694 -169.566
-67.4549 459.329 -224.535
-43.5165 439.064 -245.156
2.62562 369.641 -294.759
-27.2582 404.973 -284.06
-66.8002 408.884 -327.962
-67.4549 385.564 -335.767
-43.5165 360.652 -350.44
-1.13483 260.222 -398.689
-41.0653 321.55 -385.202
-67.4549 285.523 -424.117
-66.6835 189.48 -474.64
-67.4549 166.025 -483.565
-28.5037 6.06149 -495.336
2.43791 35.2666 -471.632
-27.2582 85.498 -487.22
-41.0653 85.8691 -494.37
-66.6835 60.1773 -507.508
-36.115 3.31603 -499.397
-67.4549 98.0006 501.792
2.43791 88.0023 464.689
-27.2582 43.517 492.747
2.62562 189.046 433.335
-41.0653 172.82 471.071
-62.159 193.764 471.49
-77.7153 254.557 446.153
-51.5075 272.34 426.604
6.00366 195.876 426.785
2.62562 294.759 369.641
-27.2582 284.06 404.973
-66.6835 316.31 401.414
-67.4549 335.767 385.564
-43.5165 350.44 360.652
-27.2582 379.196 317.653
-66.6835 409.426 305.869
-67.4549 424.117 285.523
2.62562 440.09 172.739
-27.2582 448.49 208.686
-49.2634 449.369 230.957
-62.6163 493.824 195.504
-67.4549 483.565 166.025
-43.5165 483.816 137.114
-36.115 499.397 3.31603
-1.93727 475.776 31.1714
2.62562 469.802 52.9491
-28.5037 476.889 134.057
-41.0653 494.37 85.8691
-67.4549 510.058 35.2119
-153.197 493.79 -133.803
-179.461 491.68 -103.163
-193.078 485.165 -100.881
-224.776 455.348 -126.266
-224.747 450.498 -142.695
-188.402 399.778 -297.068
-153.076 429.514 -277.996
-153.197 442.333 -257.046
-188.673 445.723 -221.951
-228.07 400.074 -245.532
-192.875 399.275 -293.691
-151.578 364.914 -359.144
-179.461 374.225 -335.182
-193.078 369.725 -329.948
-206.657 354.388 -334.086
-224.747 318.795 -348.827
-192.875 309.657 -387.023
-183.372 311.104 -392.163
-153.076 232.972 -455.508
-153.197 254.549 -443.775
-193.078 271.73 -414.397
-224.776 232.696 -411.263
-224.747 217.649 -419.451
-192.875 198.937 -453.981
-153.076 107.139 -500.285
-150.934 136.368 -493.677
-193.078 155.217 -470.606
-224.776 118.324 -457.476
-151.874 128.621 495.502
-193.078 100.881 485.165
-179.058 181.984 468.458
-154.964 165.986 483.414
-153.076 277.996 429.514
-153.197 257.046 442.333
-166.584 202.751 465.243
-193.078 223.013 442.524
-224.776 239.817 407.152
-224.747 254.431 398.215
-188.402 297.068 399.778
-181.502 334.804 388.759
-224.747 348.827 318.795
-192.875 387.023 309.657
-153.076 455.508 232.972
-153.197 443.775 254.549
-193.078 414.397 271.73
-224.747 419.451 217.649
-192.875 453.981 198.937
-153.076 500.285 107.139
-192.736 468.034 163.332
-228.07 456.512 109.278
-192.875 490.001 74.6595
-255.242 13.811 434.749
-262.343 24.7243 423.98
-224.747 21.2358 472.08
-144.489 17.914 494.671
-149.615 7.6344 512.422
-145.03 5.02834 513.469
-115.359 3.25031 516.932
-117.596 14.1265 516.675
-115.673 21.3668 516.492
-120.442 38.6055 515.287
-70.2357 88.5094 512.751
-40.3939 34.8873 500.248
32.2391 72.8242 430.692
-10.5876 134.252 464.713
33.3586 182.524 394.819
-10.5876 249.954 414.132
32.9176 278.406 335.154
-9.65702 325.488 356.856
-10.5876 348.622 335.328
33.3586 355.48 250.662
-10.5876 423.532 233.672
33.3586 399.645 171.701
33.3586 408.243 150.116
33.3586 433.185 39.3395
-10.5876 483.626 -9.40058
33.3586 428.607 -74.1175
-10.5876 464.713 -134.252
33.3586 394.819 -182.524
-10.5876 414.132 -249.954
33.3586 334.125 -278.491
-10.5876 335.328 -348.622
-10.5876 233.672 -423.532
33.3586 171.701 -399.645
33.3586 150.116 -408.243
-15.1551 130.801 -469.109
-10.5876 116.091 -469.579
33.3586 39.3395 -433.185
-100.591 11.438 -516.554
-115.359 -3.25031 -516.932
-107.414 31.0242 -516.031
-109.275 57.6499 -513.767
-181.489 34.8873 -500.248
-178.851 30.526 -501.729
-115.249 -5.471 -516.916
-154.54 -3.67765e-15 -511.242
-220.589 200.184 -432.143
-271.457 191.353 -387.232
-209.812 451.454 -176.72
-206.928 504.16 -59.5703
-255.242 433.895 -30.5375
-263.074 441.211 101.292
-244.473 243.916 379.236
-255.242 243.394 360.495
-255.242 229.335 369.598
-209.812 176.72 451.454
-255.242 125.862 416.36
-209.812 53.8533 481.81
-214.763 48.7416 478.565
-8.88015 0 -239.16
1.93215 0 -260.823
1.93215 3.29309e-14 260.823
-8.88015 2.92887e-14 239.16
-32.5029 0 -240.088
-28.3615 0 -230.209
-28.3615 2.82514e-14 230.209
-32.5029 3.06909e-14 240.088
-189.38 2.94023e-14 240.088
-189.38 0 -240.088
-193.521 2.82514e-14 -230.209
-193.521 2.89686e-14 233.006
-193.521 -37.3 227.894
-239.288 108.271 -504.685
-249.655 -329.494 -297.196
-209.812 -378.771 -302.611
-224.984 -426.777 -202.363
-249.655 -433.948 -92.6321
-209.812 -479.331 -72.6833
-223.931 -471.664 39.2325
-209.812 -194.267 444.186
-239.288 280.307 433.425
23.6173 -123.71 249.048
52.2923 166.134 -330.104
52.2923 0 -369.553
52.2923 -115.945 -350.893
23.6173 -87.246 -264.04
-243.234 0 279.957
-245.5 88.6273 263.58
-274.175 -115.945 -350.893
-274.175 0 -369.553
-245.5 -88.6273 -263.58
[...]
CELL_DATA 20677
SCALARS CellEntityIds int 1
LOOKUP_TABLE default
1
2
3
4
5
7
8
10
11
23
24
25
26
30
33
34
38
42
43
44
45
46
47
48
49
50
51
52
53
54
55
56
57
58
59
60
63
65
969
974
81
83
84
88
92
96
100
103
104
105
107
109
111
113
114
115
116
117
119
120
121
123
125
126
127
128
129
135
136
138
141
142
144
130
155
171
172
173
176
209
217
218
512
511
224
227
408
249
251
268
290
294
297
298
299
300
302
306
314
322
324
325
328
329
333
170
351
353
355
360
361
367
368
608
389
391
396
399
417
430
431
642
472
307
474
476
497
498
501
502
515
518
520
529
530
532
533
534
536
545
547
548
286
552
560
564
566
567
317
578
579
569
581
583
600
594
598
601
603
606
610
611
614
615
616
618
619
622
625
627
631
632
634
635
637
638
639
640
452
645
646
650
651
653
655
656
657
660
661
663
1193
669
673
679
683
684
685
690
693
708
713
714
720
750
761
762
776
780
786
787
4291
877
878
879
880
885
883
884
888
889
890
896
892
2312
79
1258
973
72
976
20
978
979
1100
5064
5045
993
996
5040
5026
1002
5025
5016
1006
1012
1013
1026
1021
4999
1030
19
1034
1035
1036
1037
1038
1039
1046
4970
1050
1051
1053
1056
1059
4932
1067
1069
1070
1071
1072
1074
1075
1076
1082
1083
1085
1086
1255
4885
1094
1104
1101
1108
1105
1109
1110
1115
1116
1122
1123
1117
1125
1126
1093
15
1130
4031
1141
1151
1156
1162
61
1186
1195
1197
1206
1210
1213
1222
4886
1232
1234
75
1231
1241
1237
1233
1243
1239
1247
1250
1251
1088
1262
1263
1267
1268
1272
1273
1277
1278
1282
1283
1287
1288
1293
1297
1298
1303
1307
1308
1313
1317
1318
1322
1323
1325
1326
1331
1332
1334
1335
1337
1338
1340
1341
1343
1344
1347
1349
1350
1352
1353
1359
1529
1361
1363
1365
1366
1368
1417
1373
1380
1388
1394
1402
1362
1440
1441
1442
1443
1449
1452
1464
1204
1481
1491
1517
1508
1494
1499
1500
1502
1503
1504
1509
1510
1511
1512
1513
1522
1525
1528
1531
1533
1534
1538
1539
1542
1543
1544
1550
1552
1560
1562
1564
1575
118
1583
1201
1600
1618
1619
1620
1621
1623
1637
1660
1662
1663
1669
1679
1681
1686
1684
1690
1694
1702
1198
1719
1737
1738
1739
1770
1772
1774
1775
1776
1777
1778
1779
1781
1782
1788
1803
1813
122
1821
1838
2031
1850
1854
1855
1863
1864
1874
1876
1878
1879
1881
1882
1906
1908
1909
1923
1927
1928
1943
124
1951
1952
1192
1968
2226
2005
2038
2045
2052
2053
2059
2062
2063
2067
2068
2070
2071
2073
2082
2084
2117
2115
2125
2152
2153
2400
2157
2158
2161
2166
2167
2169
2170
2172
2173
2168
2178
2179
2184
2185
2186
2187
2190
2193
2201
2208
2211
2194
2218
2249
2250
2251
2252
2253
2254
2255
2256
2258
2275
2286
2291
2289
2299
953
2326
2327
2328
2332
2333
2335
2336
2338
2339
2350
2352
2353
2331
2360
2361
2362
2364
2365
2366
2367
2386
2371
2376
2375
2379
2382
2398
2406
2407
2420
2414
2415
2418
2430
2432
1276
2449
2451
2460
2463
2465
2520
2521
2534
2553
2561
2564
2565
2570
2572
2573
2556
2579
2580
2581
2582
2585
2586
2588
2589
2590
2591
2592
2593
2596
2597
2600
2601
2604
2606
2611
2622
2623
2628
2634
2637
2639
2663
2700
2701
2778
2780
2785
2788
2797
2808
2811
2813
2821
1167
2848
2899
2850
2854
3102
2868
2869
2883
2885
2888
2889
2892
2932
2944
2945
2946
2947
2866
2952
2954
1291
2972
2976
2987
2985
2995
3022
3023
3030
3025
3054
3028
3276
3047
3048
3049
3056
3057
3060
3059
3062
3063
3065
3070
3071
3075
3076
3088
3106
3126
3128
3133
3135
3145
3159
3161
1157
3196
3247
3198
3200
3201
3202
3203
3205
3206
3207
3208
3209
3210
3212
3215
3216
3217
3218
3222
3223
3228
3232
3233
3234
3235
3236
3237
3239
3242
3241
3249
3254
3255
3262
3293
3294
3295
3296
3297
3299
3300
3302
1301
3310
3326
3324
3329
3333
3335
1152
3370
3421
3372
3381
3403
3376
3377
3379
3383
3384
3396
3397
3404
3405
3408
3407
3438
3411
3412
3413
3416
3415
3422
3423
3429
3431
3432
3435
3436
3437
3444
3445
3448
3449
3474
3476
3491
3496
3504
3509
3507
1147
3544
3595
3594
3547
3773
3576
3578
3579
3583
3585
3589
3586
3597
3600
3605
3609
3611
3612
3613
3616
3617
3623
3648
3650
1310
3667
3672
3683
3681
1142
3732
3734
3737
3738
3739
3740
3752
3798
3799
3800
3801
3803
3804
3812
3813
3814
3815
3816
3817
3819
3822
3824
1316
3841
3852
3857
3855
3865
1137
4086
3893
3897
3901
3908
3918
3919
3920
3921
3924
3925
3928
3929
3935
3900
3982
3983
3984
3985
3986
3987
3988
3990
3995
4007
4023
4021
1132
4067
4068
4071
4090
4093
4097
4101
4102
4103
4104
4106
4107
4109
4111
4112
1324
4121
4139
4143
102
4151
4152
4167
4173
4184
4187
4189
4190
4191
4210
4230
4231
4232
4233
1327
4248
4251
4253
4254
4259
4264
4268
4286
4290
4299
4302
4307
4310
4312
4319
4320
4325
4333
4336
4342
4345
4346
4348
4349
4350
4351
4352
4358
4364
4368
4383
4385
4392
4393
1219
4408
4450
4455
4456
4458
4461
4478
4479
4480
4481
4484
4487
4488
4490
4492
4493
4508
4509
4510
4512
4513
4523
4524
4526
4529
4538
4539
4542
4545
4547
4549
4550
4556
4568
4583
4585
4587
4588
4592
4598
4602
108
4604
4610
4618
1339
4636
4651
4662
4678
4692
4708
4709
4729
4728
4745
1216
4758
4759
4760
4762
4763
4767
4768
4773
4795
4799
4800
4801
4803
4804
4805
4806
4824
4839
112
4841
4852
4848
4849
4865
4867
4887
4906
4914
1077
1073
4934
4936
4938
4959
1055
1040
1024
5028
989
253
327
330
549
390
749
5032
1017
4954
1420
1393
1556
1584
1675
1773
1822
1858
1939
2095
2269
2387
2440
2619
2942
2893
3139
3238
3250
3663
3678
3902
4018
4094
4124
4249
4322
4453
4616
4835
1467
4267
1398
858
1809
2069
2176
2363
2385
2395
2569
2791
2982
3257
3430
3447
3517
3896
3945
4105
4185
4341
605
4379
809
359
4721
4579
4647
4663
4798
4765
4546
4548
4316
4229
4340
4110
4098
3953
3811
3581
3395
3313
3229
2881
2970
2699
2443
2177
2417
2280
1907
1861
2060
1873
1622
1661
1501
1540
1532
3735
3770
3750
748
4186
522
4544
724
628
437
546
2594
2164
3288
3096
2864
3946
3905
3906
3807
3402
3394
3428
3380
3620
3469
3446
3441
747
379
4330
609
405
4069
4177
617
3909
531
4100
364
4511
4506
504
1455
1559
1374
725
654
844
671
707
459
1541
644
469
1678
1536
2448
2576
2574
2419
2421
2222
2235
2380
1993
2004
2065
2061
2277
2445
2862
2949
2951
943
2750
3064
3055
3098
3382
3487
3492
507
4308
4343
4770
4507
4522
4528
1384
1383
1439
1771
1797
421
1535
2504
2514
2351
2358
2156
1982
2014
2274
2522
3315
3318
3493
3046
3220
3221
3231
3214
3580
3577
3598
3440
3666
3457
4188
812
4311
519
398
4070
240
805
4157
783
354
718
1571
582
336
5035
1798
438
269
301
554
712
563
2174
2162
2212
2197
2189
2413
1859
1860
2266
2454
2886
2880
2973
3895
3952
3736
213
4317
392
174
1367
1364
486
1800
1740
303
2625
2544
2554
2055
372
13
22
110
1019
2089
3375
4170
4457
4989
980
66
106
1658
3809
1834
4802
1867
4777
3089
3569
3391
3392
3357
4363
4842
4527
2567
3009
3263
4794
4812
1477
3910
3289
3951
3933
3927
2603
3319
1172
1492
2217
4045
4123
3107
3197
2057
1321
4486
4321
3427
3087
1889
1537
2272
2790
4565
4866
1457
2313
1271
3486
3917
4332
4180
2865
2219
1715
1596
2316
64
1181
2598
2661
2849
4347
148
751
1355
2408
4633
4169
1964
3545
3499
1171
1131
62
1176
1438
1877
3587
3981
4165
2871
4465
3631
4285
4525
2915
3261
2011
1042
2347
2348
2517
2913
3281
3751
3879
4192
4464
715
3741
3622
613
513
755
561
2072
1866
3137
3230
3808
3390
3483
593
604
528
778
767
816
830
365
743
188
331
726
649
1382
432
865
550
1555
2441
2584
2370
2595
2154
676
3138
3279
3280
3356
3298
2867
3878
3568
3584
4361
387
517
791
6
1214
169
596
165
139
334
580
468
837
664
544
1974
1862
626
285
641
467
1674
1554
2442
2563
2346
2368
2410
2248
2142
2518
2599
2519
2890
3105
2855
3072
3078
3029
3292
3211
1312
769
3916
3894
3934
3948
3926
3950
4044
3980
3907
3818
3802
3551
3806
3582
3607
3426
3420
3393
3670
4593
388
602
215
211
222
221
516
225
514
1223
4386
620
796
797
779
3942
827
358
597
193
500
503
499
1454
570
4615
584
577
731
159
719
568
470
485
1207
1804
1922
1856
872
670
672
674
864
551
565
289
291
648
851
647
1685
2583
2566
2349
2587
2330
2394
2391
2192
2411
1177
1182
2074
677
2058
2281
2271
2268
2602
2950
2948
2523
2914
2940
2898
2971
3498
3322
2851
771
535
175
1566
1391
267
304
296
2200
2171
3074
1565
16
1033
1107
4065
3614
587
150
2010
595
804
1003
984
2578
2016
2244
1296
3552
801
802
1014
1008
1009
4860
182
1348
1063
1062
985
990
982
1203
630
643
633
479
2660
2409
3932
4360
607
1061
667
2159
4483
3810
104
1425
6717
4
1
895
897
1
894
2
2
3
894
897
895
3
4
7277
1365
6717
85
8
901
903
906
10
1016
1199
1199
10
1017
2438
7164
25
24
2665
67
2657
24
1168
1158
1156
34
44
43
5402
6887
51
52
55
56
56
3920
57
1340
6717
6721
126
6717
6717
105
6717
1425
104
6717
1429
106
6717
107
109
6717
6305
110
6717
6717
1437
110
6717
111
6717
1441
112
6717
113
6717
113
6717
114
6717
115
6717
1445
114
6717
6370
116
6717
115
6717
1449
116
6717
117
6717
118
6717
117
6717
1453
118
6717
119
6717
120
119
6717
6717
122
6717
121
6717
1461
122
6717
123
6717
125
6717
1465
124
6717
125
6717
126
130
127
1017
1015
915
127
128
6526
6534
6530
146
6546
6535
143
143
6608
173
6619
6615
6618
173
175
175
6611
177
177
5797
6049
226
400
5827
219
304
1688
1710
1713
1715
299
300
6060
6062
330
6563
329
332
331
370
6110
6106
356
355
6135
6108
360
6126
6111
6118
369
369
393
391
5608
5863
242
2078
1751
6169
499
501
6174
5881
5883
5504
5492
532
5495
534
534
535
5497
535
5501
538
2141
554
714
566
566
1771
565
6199
5895
5703
5699
611
5704
616
5777
5427
629
2077
2154
2156
634
634
2073
1887
1967
636
636
1886
639
1969
1780
1699
1783
1614
1483
469
655
1615
655
1482
1506
662
6252
2356
675
2318
1891
1890
5814
5433
5471
5488
5182
780
5479
890
882
6720
883
879
1003
880
879
1003
881
880
890
882
881
883
6720
7290
1023
1022
1023
1025
1140
1139
1025
1153
7627
7612
7609
1054
1053
1191
1080
1191
1080
1191
1080
1191
1080
1079
1079
1083
1082
1087
1083
1084
1083
1095
1095
1118
1116
1117
1115
1119
1120
1121
1120
1356
1351
1347
1140
1139
1141
1153
1159
34
1156
1164
20
20
1192
1185
7338
53
53
1220
7329
7329
1268
1315
1315
1320
1325
1320
1334
85
1347
1340
7306
7306
1399
7017
1479
1572
1751
1753
1478
1480
1478
1615
1482
1481
1612
1484
1618
1618
1485
1785
1785
1483
1485
1488
1564
1496
6073
1499
6251
1506
1619
6814
6815
1614
1611
1611
1616
1616
1627
7270
7269
7274
1633
6773
1688
1918
1683
1711
1709
1696
1695
1779
1777
1974
1698
1696
1780
1699
1698
1701
1702
1710
1715
1713
1714
1712
1717
1716
1719
1719
1726
1728
1771
1761
1772
1774
1774
1762
1761
1775
1764
1766
1770
1784
1777
1783
1782
1782
1793
7246
7247
1460
121
7249
7251
1798
1799
1815
1813
7270
7269
7257
1671
1888
1887
1967
1888
1886
2163
2163
2193
1891
1892
1890
1969
1971
1971
1970
1884
1885
7223
1982
7224
1988
2004
7249
7251
7247
7246
7234
2074
2073
2156
2157
2157
2078
2074
2076
2077
2076
2139
2147
2147
2148
2141
2139
2142
2144
2150
2143
2142
2145
2145
2152
2152
2153
2153
2155
2154
2162
2155
2171
7201
7223
7224
2238
7330
7188
2286
2259
2553
2559
2258
2602
2266
2356
2358
2266
2359
2271
2271
2291
2286
2294
2318
2302
2301
2300
2259
2357
2357
2376
7177
2376
7201
2476
2564
2563
2569
2568
2568
2565
2569
2571
2571
2580
2577
2581
2576
2576
2581
2584
2583
2565
2564
2583
2610
7152
7153
7155
4
1365
7277
4
7177
2703
3010
2698
2697
2756
2706
3037
2706
2712
2713
3096
2717
2836
2847
2847
2723
3118
2723
2735
2733
2744
2733
2737
2734
2785
2698
2711
2843
2834
2839
2842
2835
2835
2836
2717
2714
2841
2715
2843
2842
2841
2713
2714
1374
7130
1374
7132
4
1370
7278
4
2863
2882
2873
7153
7152
65
2904
2944
2945
2950
3257
2949
2949
2951
2950
3262
2953
3024
3290
2953
2956
2966
2956
2970
7112
3110
2986
2983
2988
2980
2988
2980
2984
2987
2989
2991
2991
2990
2997
3025
3046
3025
3057
3075
3071
3058
3071
3070
3066
3066
3118
7107
1379
1379
7109
4
4
1375
7279
2970
2970
3109
7130
63
3212
3211
3212
3278
3278
3277
3279
3281
3279
3280
3290
3288
3293
3314
3304
3305
3304
3314
3317
3317
3319
3305
3320
3309
3308
3321
3325
3310
3309
3312
3313
3313
3315
3321
3329
3328
3418
3334
3336
3333
3337
3418
3328
3334
3335
3351
7083
7084
7086
4
4
1380
7280
7112
7107
4
3369
7280
4
7109
62
3464
3819
3464
3465
7060
3598
7061
7063
4
1385
7281
4
7066
3604
7084
7083
4
3616
7281
4
7086
3691
3998
3685
3722
4048
3701
3824
3705
3835
3835
3732
3730
3732
3725
3745
3749
3822
3825
3823
3822
3830
3827
3823
3833
3830
1394
7038
7040
1394
4
4
1390
7282
7066
7060
7061
3938
3935
4245
3932
3969
3935
3958
3958
3970
3969
3972
3979
3981
3981
3980
4092
7015
4097
7020
4098
7038
4179
4185
4493
4492
4184
4183
4216
4213
4214
4184
4185
4493
4526
4189
4188
4530
4257
4191
4194
4535
4532
4533
4192
4191
4259
4193
4192
4257
4258
4324
4197
4200
4199
4318
4329
4329
4578
4578
4198
4200
4205
4205
4611
4206
4183
4214
4212
4220
4216
4218
4218
4220
4223
4221
4223
4222
4224
4226
4226
4225
4229
4228
4229
4227
4228
4227
4243
4321
4317
4322
4317
4406
4322
4406
4324
1404
6992
6994
1404
4
1400
7284
4
6999
6999
7020
7020
7015
4
7284
4
7017
4486
4432
4739
4432
4744
4435
4501
4500
4772
4435
4438
4448
4439
4438
4503
4506
4502
4505
4501
4439
4452
4453
4463
4462
4466
4462
4475
4474
4478
4475
4512
4534
4538
4508
4515
4515
4514
4534
6969
6971
4
4
7285
6974
6974
4592
6992
4
7285
4
6994
4676
4673
4708
4710
4708
4712
4717
4716
4713
4720
4720
4719
4723
4722
4733
4725
4737
4759
4762
4766
4765
6946
6948
4
1410
7286
4
6969
4939
4941
4939
5319
4936
4937
4936
4938
4940
4943
5059
4941
4940
5059
5070
5070
4985
4676
5039
5033
5034
5035
5034
5052
5056
5056
5052
5035
5055
5055
5036
5047
5053
5050
5051
5054
5051
5054
5057
5060
5058
5057
5062
5058
6923
6925
4
4
1415
7287
6946
4
5098
7287
4
6948
5202
5172
5171
5172
5168
5179
5486
5478
5179
5479
5182
5471
5488
5487
5188
5311
5184
5255
5214
5216
5216
5220
5220
5226
5228
5227
5231
5310
5304
5306
5305
5306
5307
5394
5312
5312
5327
6899
6900
1424
4
1420
7288
4
6923
4
7288
4
6925
5433
5179
5493
5504
5492
5496
5495
5497
5496
5498
5507
5507
5499
5503
5501
5499
5503
5514
5510
5514
5515
5515
5427
1428
6877
1428
6881
5531
6899
6900
5568
6887
7332
5594
5608
5613
5661
5863
5613
5615
5701
5707
5621
5707
5622
5703
5700
5699
5702
5700
5777
5705
1432
6854
1432
5736
6881
6881
6877
6717
5731
106
105
6717
5754
6863
5950
5786
6842
5800
6049
5797
6048
5838
5823
5808
5807
5890
5891
5889
5814
6302
5827
5823
5828
5831
5832
5830
5854
5857
5856
5615
5873
5881
5883
5873
5876
5875
5876
5885
5895
5889
6819
6820
5905
109
6824
5911
6854
107
6060
6062
6061
6563
6110
6106
6109
6135
6108
6107
6137
6112
6112
6111
6118
6124
6123
6126
6125
6136
6136
6174
6165
6167
6166
6165
6168
6170
6169
6168
6179
6179
6177
6172
6171
6197
6208
6198
6197
6199
6200
6203
6202
6204
6207
6206
6207
6236
6242
6240
6253
6246
6252
6247
6246
6827
6828
6261
6828
6827
111
6301
6302
6824
6820
6819
6814
6334
6815
6806
6340
1448
6795
1448
6795
6409
7334
6401
6783
6783
6422
6527
6526
6529
6534
6530
6557
6536
6536
6535
6546
6545
6609
6607
6608
6607
6621
6612
6611
6618
6617
6615
6617
6616
6620
6619
6621
6620
6735
6736
6629
6735
6736
6725
6703
6677
2144
2143
548
547
6204
616
616
749
6301
2
894
882
890
882
890
894
2
5314
5311
5184
1688
3074
3057
3732
3824
3705
3691
4198
5310
5304
897
895
895
897
897
895
895
897
895
897
895
897
897
895
895
897
895
897
897
895
897
895
895
897
897
895
895
897
897
895
897
895
895
897
897
895
895
897
897
895
895
897
897
895
897
895
897
895
903
901
901
903
903
901
903
901
903
901
901
903
903
901
903
901
901
903
903
901
903
901
901
903
901
903
903
901
901
903
903
901
901
903
903
901
903
901
901
903
901
903
903
901
901
903
903
901
1488
1702
1701
1771
1762
1783
2148
550
2359
2581
2576
2732
2701
2701
2732
2841
2714
3308
4183
4214
4199
4318
4486
4474
4529
4526
4189
4194
4717
5051
5471
5182
5488
5504
5492
5881
5875
5875
1301
5942
662
6703
1289
6669
906
8
906
8
8
906
8
906
8
906
8
906
8
906
8
906
8
906
8
906
906
8
8
906
906
8
8
906
906
8
8
906
906
8
906
8
8
906
906
8
8
906
906
8
906
8
8
906
906
8
906
8
8
906
906
8
894
2
894
2
2
894
2
894
894
2
894
2
894
2
2
894
2
894
2
894
2
894
894
2
2
894
894
2
2
894
2
894
894
2
2
894
2
894
894
2
2
894
894
2
894
2
2
894
894
2
2
894
894
2
2
894
6621
6621
6824
6824
5516
5516
7020
2701
2732
894
2
2
894
8
906
8
906
906
8
894
2
2
894
5052
5035
5895
903
901
8
906
8
906
8
906
2
894
894
2
894
2
906
8
906
8
8
906
906
8
894
2
2
894
5202
5171
5174
5202
5171
6301
5498
5497
895
897
895
897
901
903
903
901
897
895
895
897
897
895
897
895
895
897
895
897
895
897
1484
1612
895
897
903
901
901
903
901
903
903
901
1709
1709
1780
1699
1969
1762
2569
2563
2
894
894
2
8
906
8
906
8
906
906
8
8
906
8
906
906
8
2
894
7066
7066
8
906
8
906
906
8
906
8
8
906
906
8
894
2
2
894
4462
5830
5814
897
895
895
897
901
903
903
901
903
901
901
903
897
895
897
895
895
897
895
897
901
903
903
901
903
901
901
903
2141
2356
2144
2143
1710
1715
1713
3314
3304
2834
894
2
8
906
8
906
8
906
906
8
894
2
2
894
4227
2
894
4708
4847
4452
4452
7251
7251
2977
906
8
894
2
1970
1885
7249
7249
10
10
1190
4908
5127
48
47
67
2665
67
2665
7328
7327
6806
6806
7327
7327
1726
1774
1773
1886
1268
7329
1268
7329
2049
7331
7331
4
7279
4
7279
4
7282
4
3863
7282
4
7283
4
4
4357
7284
6999
4676
4
7288
6722
7332
6722
7332
5972
1280
7334
7334
1280
7334
66
67
34
1156
34
1156
34
1156
34
1156
34
1156
34
1156
34
1156
34
1156
34
1156
34
1156
34
1156
34
1156
34
1156
51
51
4661
51
3645
60
59
59
59
3673
59
1347
1347
1347
1347
6717
122
1347
1347
1347
1347
1347
1347
1347
1347
1347
1347
1347
1347
1347
6717
6717
108
6717
114
10
10
10
10
10
10
10
10
10
1199
1199
1079
1079
1177
1174
1177
1174
26
1174
26
1174
26
1174
6717
1453
118
915
903
915
5047
5047
915
903
915
903
915
915
915
915
903
915
903
915
903
915
903
915
915
903
915
907
915
6616
6616
915
903
915
903
1761
915
903
915
915
903
915
915
1770
1770
915
915
915
915
915
915
915
915
915
915
915
915
903
915
903
915
3301
2966
915
915
915
915
6246
915
915
5047
915
903
915
903
915
903
915
915
903
915
4535
1696
915
1971
1696
2583
915
915
903
915
903
903
915
915
903
5618
915
915
915
915
903
915
915
903
915
903
3321
915
903
915
903
915
1611
1719
2145
2577
2702
2702
3958
3981
4941
5053
5053
4438
4438
4438
4324
4317
4324
2703
5516
5893
5808
50
64
7306
7306
7306
7306
7274
7274
7306
7306
7306
7306
7306
7306
7306
7306
7306
7306
7306
6609
1289
6702
6669
883
6720
895
883
6720
883
895
6720
883
895
6720
883
895
6720
883
895
6720
883
895
6720
895
883
6720
895
883
6720
6795
6795
883
6720
883
6720
895
883
6720
895
883
6720
883
6720
895
883
6720
6242
6242
6203
6203
1971
1200
45
1200
45
55
1225
55
4167
1240
1240
6717
125
125
6717
1023
1023
1711
1711
1766
1766
2139
2266
2266
2713
3830
3830
1399
1399
4200
4228
5058
1424
1424
5503
5503
5808
5889
6168
117
117
6717
6717
6819
6820
6819
6820
6814
6815
6819
6820
6887
7060
7061
7107
7152
7153
7223
7224
7270
7269
6486
1081
1081
882
890
882
890
128
906
128
882
890
882
894
890
128
906
128
906
882
894
890
882
894
890
128
128
882
890
894
882
890
882
890
882
890
882
890
882
894
890
882
890
894
882
890
128
128
906
882
890
882
890
882
890
894
882
890
882
894
890
882
890
882
894
890
128
894
882
890
128
128
128
128
906
882
890
882
894
890
906
128
128
882
894
890
882
890
882
890
128
128
882
890
128
128
128
128
128
128
128
128
128
128
882
890
882
890
128
128
906
128
128
128
906
128
906
128
906
882
890
128
128
128
128
882
894
890
128
906
128
128
882
890
882
890
128
894
882
890
882
890
882
890
882
890
882
890
882
890
894
882
890
882
890
882
894
890
882
890
128
906
128
882
890
882
890
894
882
890
882
890
882
890
882
894
890
882
890
882
890
882
890
882
890
128
128
906
882
894
890
882
890
128
894
882
890
882
894
890
128
128
128
128
128
128
128
128
128
2155
128
128
128
128
128
906
128
906
128
128
128
128
1782
906
128
1616
1404
5704
5807
5890
5807
5890
610
6536
6230
6243
5168
6228
6229
5216
5172
6946
6946
5216
3336
3336
4
7109
7130
4
7132
2713
4
7155
4
7155
2286
2286
2142
2139
6717
119
2142
7234
1860
7328
1140
1139
1140
1139
1140
1139
1176
1191
1080
1191
1080
6722
7332
1140
1139
1191
1080
1140
1139
1140
1139
7327
1191
1080
7334
6409
7334
6409
7334
6409
7332
1140
1139
1191
1080
1191
1080
26
1174
26
1174
26
1174
26
1174
26
1174
26
1174
26
1174
26
1174
26
1174
26
1178
1174
5155
47
5374
46
6717
108
6717
115
6717
115
6717
123
6717
124
882
894
890
882
890
882
890
128
10
128
128
1164
1320
1320
1164
1164
1164
1163
10
10
10
10
10
10
7331
1320
1320
1320
1320
1320
1320
1340
1340
1340
1340
6717
726
1638
1698
2786
3077
3079
3078
3079
7132
4193
4475
5208
5204
5203
5204
5207
5312
5312
5312
6251
6536
6854
6854
6923
6923
7015
7015
7017
7017
4
4
4
2875
7278
6459
6761
7341
7270
7269
7341
7341
4
7286
7341
6511
5894
5894
6717
121
6717
121
7060
7061
3969
1079
5823
6717
111
6717
111
1460
6717
107
6717
107
5188
5885
6717
6992
3722
3722
6717
113
6612
6612
6717
121
66
1394
6783
6783
2559
3212
5831
6992
6136
5622
6717
7246