# vtk DataFile Version 2.0 
Created by AlgoHex
ASCII
DATASET UNSTRUCTURED_GRID
POINTS 25518 double
29.9268 0 -378.186
-31.8148 0 -261.132
-31.8148 3.19795e-14 261.132
29.9268 4.63144e-14 378.186
-190.068 0 -261.132
-251.81 0 -378.186
-251.81 4.63144e-14 378.186
-190.068 3.19795e-14 261.132
-243.234 0 279.957
-243.234 0 -279.957
-274.229 40.165 392.503
-274.229 -32.9274 393.176
-277.176 -4.52572e-14 369.553
-277.176 -164.403 330.97
-245.545 -124.996 248.364
-277.176 -350.281 117.78
-245.545 -264.005 87.2344
-277.176 -330.97 -164.403
-245.545 -248.364 -124.996
-277.176 -117.78 -350.281
-245.545 -87.2344 -264.005
-277.176 0 -369.553
-274.229 0 -394.553
-274.229 -40.165 -392.503
-275.292 -70.2326 -388.48
-275.292 -168.386 -357.066
-275.958 -231.189 -320.176
-275.292 -255.063 -301.318
-275.958 -306.179 -249.43
-275.292 -324.359 -225.035
-275.958 -360.304 -161.686
-275.292 -393.421 -32.7066
-275.958 -392.875 40.1278
-274.229 -388.301 69.9561
-274.229 -368.733 140.384
-275.292 -357.066 168.386
-275.958 -320.176 231.189
-275.292 -301.318 255.063
-274.229 -249.141 305.943
-275.292 -225.035 324.359
-275.958 -161.686 360.304
21.3513 0 279.957
21.3513 0 -279.957
52.3456 57.8792 390.284
52.3456 -10.1129 394.423
52.3456 10.1129 -394.423
52.3456 45.106 -391.966
52.3456 111.852 -378.366
52.3456 145.017 -366.936
52.3456 205.97 -336.524
52.3456 235.046 -316.899
52.3456 286.05 -271.748
52.3456 309.057 -245.267
52.3456 346.637 -188.454
52.3456 362.005 -156.92
52.3456 383.601 -92.3159
52.3456 390.284 -57.8792
52.3456 394.423 10.1129
52.3456 391.966 45.106
52.3456 378.366 111.852
52.3456 366.936 145.017
52.3456 336.524 205.97
52.3456 316.899 235.046
52.3456 271.748 286.05
52.3456 245.267 309.057
52.3456 188.454 346.637
52.3456 163.601 359.03
52.3456 92.3159 383.601
-223.815 0 -260.823
-213.003 0 -239.16
-213.003 2.92887e-14 239.16
-223.815 3.29309e-14 260.823
-115.249 516.916 -5.471
-122.954 513.759 -53.8105
-91.4011 510.053 -77.1815
-83.8942 508.99 -77.1748
-43.0323 501.729 -30.526
-83.1787 514.628 7.96208
-131.136 509.157 82.3971
-181.85 499.89 37.5168
-143.151 513.87 -3.61314
-114.822 525.641 -31.8588
-107.414 516.031 31.0242
-109.217 513.213 62.3906
-124.505 510.275 79.6303
5.81495 462.769 -80.808
-41.0653 499.749 -45.0092
-63.1621 505.893 -65.0611
-28.5037 480.027 -122.347
-179.058 499.597 -54.5369
-219.913 476.832 0.856585
-102.104 501.1 -126.281
-117.596 495.414 -147.371
-93.9803 478.179 -208.783
-73.3651 470.479 -203.848
-92.4779 507.103 -125.998
-102.104 451.342 -251.672
-115.249 444.927 -263.196
-101.73 405.146 -320.756
-73.3651 401.688 -318.671
-83.1787 449.662 -250.418
-89.6021 451.719 -248.662
-98.2201 379.182 -350.729
-115.249 361.646 -369.383
-107.414 284.883 -431.384
-80.2315 304.245 -414.493
-83.1787 369.527 -358.267
-115.249 253.72 -450.398
-125.31 213.947 -469.978
-101.73 190.488 -480.356
-87.6262 188.678 -479.594
-83.1787 264.209 -441.7
-115.249 128.503 -500.718
-138.494 101.676 -504.572
-102.104 126.281 501.1
-117.596 147.371 495.414
-101.73 204.967 474.359
-91.4011 206.563 472.697
-87.1957 208.469 482.853
-76.4624 206.123 470.228
-102.104 251.672 451.342
-117.596 270.571 440.39
-101.73 320.756 405.146
-91.4011 321.868 403.128
-117.596 375.333 355.355
-122.954 401.333 325.233
-101.73 414.686 308.323
-83.1787 358.267 369.527
-108.752 447.215 259.367
-115.673 457.978 239.742
-125.068 473.386 217.263
-122.954 471.834 210.279
-69.7852 475.445 189.645
-43.0166 455.937 211.608
-92.6855 441.551 267.008
-89.6021 441.207 266.869
-95.7754 441.841 267.126
-105.247 497.467 140.381
-115.359 500.159 130.652
-122.851 508.003 93.7301
-101.73 513.29 59.6723
-73.3651 509.371 58.7017
-83.1787 495.031 140.886
-129.266 514.003 -45.2596
-144.076 510.801 -54.4826
-115.359 498.476 -136.931
-107.414 506.477 -103.592
-112.574 508.891 -91.1634
-151.189 447.321 -268.342
-107.414 462.408 -231.148
-181.85 380.004 -326.947
-125.25 361.436 -368.812
-107.414 386.827 -342.952
-109.275 404.053 -322.524
-111.561 313.956 -410.755
-126.797 216.055 -496.662
-150.929 228.656 -458.293
-107.414 163.526 -490.418
-112.553 181.84 -490.202
-144.076 54.4826 510.801
-143.151 136.489 495.425
-125.388 140.039 507.965
-115.359 136.931 498.476
-107.414 103.592 506.477
-112.586 87.6764 515.754
-144.076 184.831 479.295
-178.851 224.428 449.773
-115.359 261.281 446.051
-107.414 231.148 462.408
-112.574 219.768 467.956
-109.415 204.64 478.212
-115.359 367.824 363.228
-107.414 342.952 386.827
-143.151 446.831 253.806
-115.359 449.301 255.651
-107.414 431.384 284.883
-174.001 480.134 155.54
-143.151 497.295 129.509
-107.414 490.418 163.526
-110.802 493.509 197.607
2.62562 433.335 -189.046
-34.2241 469.125 -168.452
-41.0653 471.071 -172.82
-66.6835 469.603 -201.639
-67.4549 459.329 -224.535
-43.5165 439.064 -245.156
-1.12978 427.359 -209.868
2.43791 358.431 -308.557
2.62562 369.641 -294.759
-27.2582 404.973 -284.06
-65.3424 403.799 -312.638
-67.4549 385.564 -335.767
-43.5165 360.652 -350.44
-34.2241 322.048 -380.447
-72.0198 296.635 -417.839
-67.4549 285.523 -424.117
-67.4549 166.025 -483.565
2.43791 35.2666 -471.632
5.87475 45.8349 -467.471
-67.2063 64.4812 -507.114
-67.4549 98.0006 501.792
-28.5037 122.347 480.027
2.43791 88.0023 464.689
-27.2582 43.517 492.747
2.62562 189.046 433.335
-34.2241 168.452 469.125
-67.7773 198.286 471.337
-67.4549 224.535 459.329
-36.115 246.827 434.149
-28.5037 345.969 354.542
-27.2582 284.06 404.973
-62.3757 309.317 405.262
-67.4549 335.767 385.564
-67.4549 424.117 285.523
-43.5165 431.843 257.663
2.43791 446.434 156.132
-27.2582 448.49 208.686
-28.5037 495.336 6.06149
2.62562 469.802 52.9491
-27.2582 487.22 85.498
-66.3216 506.814 64.9732
-67.4549 510.058 35.2119
-43.5165 502.818 7.22088
-189.97 487.838 -96.2242
-179.058 468.458 -181.984
-153.076 486.829 -157.357
-179.058 405.395 -297.029
-153.076 429.514 -277.996
-156.742 456.813 -266.958
-192.875 399.275 -293.691
-224.776 331.21 -337.024
-224.747 318.795 -348.827
-192.875 309.657 -387.023
-179.058 314.705 -391.832
-153.076 342.928 -379.689
-224.776 118.324 -457.476
-153.197 133.803 493.79
-193.078 100.881 485.165
-179.058 181.984 468.458
-153.076 157.357 486.829
-196.071 330.989 366.481
-153.076 277.996 429.514
-153.197 257.046 442.333
-193.078 223.013 442.524
-228.07 245.532 400.074
-192.875 293.691 399.275
-179.058 391.832 314.705
-153.076 379.689 342.928
-153.076 455.508 232.972
-187.449 412.404 280.126
-156.783 511.981 134.285
-192.875 490.001 74.6595
-255.242 13.811 434.749
-192.875 54.706 492.628
-153.076 25.9944 510.967
-153.197 1.44182 511.595
-146.861 6.5901e-14 513.114
-125.25 5.21537 516.363
-102.104 -7.71667 516.71
-117.596 14.1265 516.675
-115.673 21.3668 516.492
-120.442 38.6055 515.287
-101.73 75.2103 511.245
-72.0198 85.7045 505.209
-69.7073 74.2947 506.431
13.3714 32.3031 468.916
33.3586 74.1175 428.607
-10.5876 134.252 464.713
33.3586 182.524 394.819
-10.4405 229.717 425.565
-10.5876 249.954 414.132
35.7403 261.229 345.67
-10.5876 348.622 335.328
33.3586 355.48 250.662
-10.4405 411.724 253.692
-10.5876 423.532 233.672
35.7892 400.851 169.694
-10.4405 463.355 138.485
-10.5876 469.579 116.091
33.3586 433.185 39.3395
-10.4405 483.409 13.8416
-10.5876 483.626 -9.40058
-10.4405 470.52 -111.746
-10.5876 464.713 -134.252
-12.605 430.362 -224.063
-10.5876 414.132 -249.954
33.3586 334.125 -278.491
-7.33554 355.028 -324.842
-10.5876 335.328 -348.622
31.4526 269.057 -345.728
31.5801 254.222 -356.502
-15.4345 245.531 -420.803
33.3586 171.701 -399.645
33.3586 150.116 -408.243
-10.5876 116.091 -469.579
33.3586 62.4143 -430.467
33.3586 39.3395 -433.185
-98.3755 17.8463 -520.304
-100.555 24.1599 -516.113
-107.414 31.0242 -516.031
-178.866 44.7108 -500.657
-146.861 2.73823e-15 -513.114
-154.54 -3.67765e-15 -511.242
-237.877 94.8408 -449.111
-244.473 95.686 -440.635
-215.902 197.704 -437.564
-237.877 207.848 -409.262
-213.786 316.038 -363.69
-211.461 400.019 -271.731
-255.242 360.495 -243.394
-255.242 369.598 -229.335
-209.734 442.358 -198.532
-244.473 429.444 -137.451
-249.655 422.126 -136.752
-255.242 411.206 -141.797
-255.242 416.36 -125.862
-230.354 466 -32.5299
-255.242 434.749 -13.811
-255.242 427.014 82.8032
-255.242 423.509 99.1808
-221.578 430.966 200.69
-244.473 400.855 206.47
-247.149 397.841 204.443
-255.242 391.032 190.501
-247.149 331.371 300.445
-253.759 327.986 289.402
-255.242 328.403 285.216
-232.389 258.351 386.68
-255.242 243.394 360.495
-255.242 229.335 369.598
-222.717 161.447 446.064
-249.655 136.752 422.126
-255.242 141.797 411.206
-255.242 125.862 416.36
-213.149 50.4099 479.667
-255.242 30.5375 433.895
-8.88015 0 -239.16
1.93215 0 -260.823
1.93215 3.29309e-14 260.823
-8.88015 2.92887e-14 239.16
-16.168 2.83104e-14 231.172
-28.3615 2.82514e-14 230.209
-32.5029 0 -240.088
-28.3615 0 -230.209
-28.3615 5.64017 230.134
-32.5029 3.06909e-14 240.088
-189.38 2.94023e-14 240.088
-189.38 0 -240.088
-193.521 0 -233.006
-193.521 2.89686e-14 233.006
-239.288 491.205 -158.577
-244.473 489.731 -155.882
-239.288 235.203 -459.466
-244.473 -23.8193 -513.389
-244.473 -21.6192 -450.386
-247.149 -136.753 -425.879
-216.902 -270.554 -395.682
-237.877 -409.262 -207.848
-249.655 -433.948 -92.6321
-244.473 -489.731 155.882
-233.144 -441.696 142.921
-210.847 -82.5336 520.092
23.6173 -125.012 248.397
55.2933 164.403 -330.97
52.2923 0 -369.553
55.2933 -115.945 -350.893
23.6173 -87.246 -264.04
-243.234 89.2253 265.358
-274.175 -115.945 -350.893
-274.175 0 -369.553
-243.234 -89.2253 -265.358
-268.648 306.922 114.545
-264.759 296.932 109.103
-266.402 304.736 94.1377
-272.721 315.262 100.95
-271.681 321.731 109.69
-271.085 315.974 117.317
-272.506 333.158 87.7702
-264.088 304.272 80.2634
-272.051 330.19 77.9932
-268.894 322.617 61.5614
-268.895 324.386 51.4488
-269.353 327.279 42.7504
-272.524 342.562 37.7588
-264.199 313.801 26.8818
-269.21 328.816 21.9209
-274.431 337.312 26.7329
-272.462 329.675 15.8616
-272.497 344.467 0.936434
-264.191 314.929 1.05952
-266.409 320.376 -15.158
-270.944 335.296 -27.4557
-270.49 321.715 -33.1397
-264.202 311.648 -45.5466
-273.769 335.905 -40.53
[...]
CELL_DATA 24427
SCALARS CellEntityIds int 1
LOOKUP_TABLE default
1
2
3
4
5
6
7
8
976
980
1968
24
25
26
30
34
38
42
43
44
4025
3859
3706
3685
3532
3511
3358
3163
3010
57
58
2815
2662
2641
62
2467
2314
969
974
81
2115
102
103
104
105
106
107
108
109
110
111
112
113
114
115
116
117
118
119
120
121
122
123
124
125
126
127
128
130
135
145
148
150
132
156
159
160
161
164
165
168
169
174
192
193
194
200
203
206
207
379
210
396
218
222
226
231
232
233
238
305
308
311
574
320
321
489
326
328
331
334
337
339
345
348
349
372
376
380
382
399
435
437
441
444
445
446
1425
497
499
500
501
502
504
506
507
508
510
511
512
519
520
527
530
534
537
539
540
542
545
548
549
553
556
559
567
568
577
579
580
582
583
584
593
604
605
606
607
608
643
634
635
637
638
640
670
672
673
1850
683
684
685
688
544
702
707
708
1351
714
719
720
721
725
726
737
738
743
744
749
750
755
762
776
822
825
859
877
878
879
880
881
884
885
888
889
890
891
899
900
912
913
940
942
78
99
972
1225
72
1119
978
979
1096
983
984
985
5051
5061
989
990
992
995
996
997
1000
1001
1002
1003
5026
5007
1009
1007
1011
1017
4994
1022
4991
1027
1028
1029
4988
19
17
1037
1038
1039
1041
1044
1045
1046
4970
1050
1051
1059
1060
1064
1062
1063
1065
1069
1068
1070
1071
1072
4925
1076
4908
1085
92
91
14
1093
4888
1101
1099
1108
1105
1113
1115
1121
1122
1124
1126
1036
1131
1136
1137
1142
1147
1152
3189
1162
1166
1172
1177
1181
1182
1191
1194
1195
1198
1200
1201
1203
1206
1210
1213
1215
1216
1219
1222
1238
1244
77
1243
84
1249
1250
1251
1255
4885
1262
1263
1267
1268
2433
1278
1281
1287
1288
1292
1293
1298
1308
1311
1312
1313
1315
1317
1318
1321
1322
1323
1325
1326
1328
1329
1331
1332
1340
1344
1346
1347
1350
1356
1357
1367
1368
1372
1373
4452
1375
1384
1385
1386
1389
1398
1402
1401
1408
1411
1413
1416
1417
1443
1452
1458
1464
1204
1481
1504
299
1532
1533
1535
1539
1544
1545
1348
1560
1563
1564
1565
1571
1575
1574
1584
1583
1600
1601
854
1614
1767
1616
1617
1618
1620
1621
1622
1623
1639
1652
1654
1655
1656
1657
1651
1659
1660
1661
1663
1672
1679
1684
1690
1694
1693
1696
1703
1704
1716
1720
861
1742
1761
1762
1763
1764
1766
1769
1776
1772
1774
1777
1782
1790
1797
1798
1805
1801
1803
1809
1813
1812
1815
1819
1822
1823
1835
1839
868
1852
2052
1860
1863
1874
1877
1878
1879
1881
1849
1897
1898
1899
1900
1901
1903
1904
1906
1907
1909
1910
1923
1922
1927
1928
1930
1933
1939
1943
1942
1956
1945
1952
1953
1192
2082
2083
2084
2089
2112
2117
2116
2141
2176
2177
2178
2232
2233
2234
2236
2237
2238
2239
2247
2256
2258
1271
2266
2275
2286
2291
2290
2289
2295
2300
2317
1183
2350
2351
2352
2353
2407
2408
2409
2410
2412
2413
2414
2415
2416
2417
2419
2420
2421
2430
2431
2437
2440
2449
2452
2460
2465
2464
2463
2473
2474
2491
1178
2507
2509
2749
2751
2513
2526
2527
2530
2502
2559
2578
2583
2585
2586
2588
2589
2593
2594
2596
2597
2598
2599
2600
2604
2605
2606
2614
2623
2626
2628
2634
2639
2638
2647
2648
2665
1175
2671
2673
2674
2725
2676
2680
2681
2683
2923
2925
2687
2688
2700
2701
2709
2712
2713
2715
2716
2717
2718
2733
2739
2746
2747
2752
2753
2755
2756
2757
2708
2761
2763
2769
2778
2780
1286
2787
2797
2800
2802
2808
2813
2812
2811
2822
2827
2829
2831
2834
2835
1167
2848
2899
2898
2851
2881
2854
2855
2856
2857
3097
2860
2861
2862
2868
2869
2872
2874
2875
2883
2888
2889
2890
2893
2908
2909
2913
2914
2915
2916
2917
2920
2921
2926
2927
2932
2944
2945
2946
2947
2949
2952
2953
2954
1291
2962
2971
2976
2982
2987
2986
2985
2995
3013
3029
3031
3271
3034
3042
3046
3048
3049
3056
3064
3072
3077
3035
3087
3090
3089
3092
3093
3094
3095
3096
3100
3101
3102
3103
3104
3105
3106
3107
3109
3110
3111
3112
3113
3114
3115
3126
3127
3128
1296
3145
3150
3156
3161
3160
3159
3167
3169
3170
3185
3198
3203
3205
3208
3209
3210
3215
3217
3220
3222
3223
3234
3238
3252
3254
3255
3257
3258
3262
3266
3268
3269
3273
3274
3275
3277
3278
3280
3281
3289
3290
3291
3300
3302
1301
3310
3319
3330
3335
3334
3333
3361
3597
3372
3374
3375
3596
3386
3473
3391
3392
3394
3395
3403
3404
3408
3409
3410
3411
3415
3421
3432
3434
3435
3436
3437
3444
3445
3446
3447
3451
3454
3455
3457
3462
3463
3464
3465
3467
3468
3469
3470
3471
3474
3476
1306
3489
3493
3496
3504
3509
3508
3507
3515
3517
3518
3535
3546
3555
3553
3793
3556
3557
3559
3564
3568
3570
3571
3578
3600
3603
3624
3625
3626
3628
3629
3630
3631
3632
3633
3634
3635
3636
3637
3638
3639
3640
3648
3649
3650
3658
3667
3669
3672
3678
3683
3682
3681
3689
3691
3692
3709
3696
3718
3719
3726
3721
3750
3724
3725
3744
3745
3748
3749
3753
3756
3755
3758
3759
3760
3761
3762
3766
3780
3782
3783
3790
3791
3795
3802
3822
3823
3824
3832
3841
3844
3846
3852
3857
3856
3855
3866
3883
1140
3889
3891
3934
3976
3922
3925
3926
3929
3932
3933
3893
3937
3964
3965
3966
3967
3969
3970
3971
3972
3973
3974
3975
3978
3988
3989
3990
4007
4018
4023
4022
4021
4032
4039
4041
4044
4045
1132
4070
4071
4102
4103
4106
4107
4112
4113
4118
4120
4139
4143
4142
4157
4151
4167
800
4180
4206
4183
4192
4182
4198
4201
4215
4223
4225
4227
4221
4233
4234
4239
4241
4247
4249
4252
4254
4260
4264
4263
4289
4290
1223
4299
4325
4316
4302
4303
4306
4307
4308
4311
4312
4318
4319
4320
4322
4327
4329
4345
4342
4344
4348
4349
4350
4351
4352
1330
4361
4368
4371
4373
4379
4383
4382
4385
4396
4393
4405
4409
190
4434
4449
4438
4440
4441
4442
4443
4444
4450
4453
4456
4457
4458
4461
4463
4464
4465
4468
4471
4472
4474
4476
4477
4495
4498
4500
4506
4507
4508
4510
4511
4512
4513
4514
4515
4516
4517
4518
4519
4520
4522
4523
4524
4525
4526
4527
4528
4634
4550
4551
745
4559
4563
4568
4571
4579
4583
4582
4587
4598
4602
4601
4604
1341
727
4613
4618
4636
4647
4651
4650
4653
4656
4660
4663
4664
4679
4692
4702
4710
4729
4728
4734
4738
4741
4742
4745
4776
4780
4781
4783
4785
4786
4788
4790
4794
4795
4796
4798
4801
4802
4806
1336
4815
4819
4820
4821
4822
4824
4827
4829
4835
4839
4838
4841
4848
4849
4865
4867
828
75
1226
4887
4899
1073
4938
4953
1053
1040
1032
1024
1008
5018
5016
5015
5019
5020
5029
993
440
283
578
374
438
718
742
754
760
766
1067
1455
1619
1675
2269
2447
2524
2744
2767
941
2904
2865
3139
3313
3487
3661
3835
202
4616
4818
4743
4711
4706
4665
4275
3747
3867
3863
3345
3171
2529
2651
1700
313
2179
2525
3136
3285
3288
3279
3206
4105
4199
344
4565
141
895
4791
4779
4775
4364
4310
4521
4499
4467
4470
4455
4347
4124
4222
4101
4100
3917
4006
3977
3569
3452
3253
3047
2873
2965
2699
2970
2919
2707
2745
2443
2581
2448
2418
2241
1873
2031
1741
1926
1902
1771
1556
1653
1536
1518
3318
3147
3263
3267
3810
3742
3385
3207
3666
225
522
341
363
4509
4777
172
687
1773
262
2660
2272
2516
2760
2934
2935
2791
3144
3074
3200
3240
3259
3033
2871
3098
1134
3538
3751
3781
3763
3388
3412
3407
3662
3459
748
516
204
4446
4304
518
4346
253
392
525
4104
780
536
4245
176
4436
189
4797
347
4567
581
491
1794
541
665
1905
1768
443
269
1765
1503
1538
554
563
1559
2622
2625
2544
2601
2330
2144
1859
1871
2445
2826
2518
2603
2515
2719
2510
2742
2922
2918
2901
2967
2764
2796
3498
3324
3221
3032
2864
3848
4009
3936
3402
3460
3599
3364
923
3211
3663
198
612
4309
4305
397
386
4202
532
4800
175
350
4573
1393
573
4803
706
552
433
713
1678
712
2617
2534
2584
2514
1864
2866
935
2511
2743
2940
3141
2905
3066
3084
3080
3840
3919
3918
3743
3769
3586
3627
3492
4562
4586
4589
4367
235
240
4086
771
171
826
736
724
154
157
700
693
1875
436
557
301
642
2521
2454
2924
2556
2885
2730
2698
3453
3837
3426
215
4321
4793
330
488
314
676
2820
2736
3321
1409
1552
2003
3544
4633
1697
1444
1784
2243
2517
2661
2790
2891
3043
3099
4445
2801
3173
2257
3164
3785
4529
2637
2711
2779
2816
3301
3475
3686
3708
4026
4185
4462
4575
4657
4727
4866
66
1187
3897
2590
1664
3012
3534
4807
3987
4353
1599
1802
1837
1887
4805
46
1555
1775
1890
2941
3379
4268
4407
4703
4754
4828
3486
2453
1718
447
1804
2686
3949
3951
4574
3325
4169
1760
2616
2679
2245
2765
3360
4418
4494
4214
3860
3196
2777
2642
2490
1020
83
3009
3397
3565
3910
4224
4655
3497
1354
1424
2695
3882
4343
4333
3152
1610
1277
492
1946
1908
1964
3218
3456
4531
1935
2759
3151
4204
4530
897
1793
2500
2849
3787
4193
4758
4782
2446
1816
2964
3229
3531
3512
4301
4435
4496
4619
4842
1390
1662
1861
3117
4860
1537
4605
166
3811
3339
4799
3091
2664
3022
1715
1627
23
3138
3045
4003
517
4122
1214
1211
823
4615
173
696
431
2066
2235
893
2694
2551
3312
3834
1138
3986
1143
3461
3384
3530
3466
3433
3450
4561
601
514
761
4123
589
498
4773
561
551
268
1554
2582
2532
2595
2002
2054
1857
1163
2697
2963
2789
3315
3116
3284
3216
769
3930
3595
3722
3377
3393
3390
1148
3484
4363
371
809
505
521
524
252
767
833
585
830
163
731
576
147
1352
1792
694
667
872
284
633
1674
2442
2535
2978
2973
2580
2246
2411
3000
2948
3008
2754
2768
2762
3030
3108
3276
3264
2867
1156
1157
1153
4005
4012
3916
3950
4036
4043
4038
3784
3720
3396
3373
3472
3671
3660
509
195
199
201
1220
415
528
4392
535
1324
4255
4244
4243
170
824
4736
167
177
4830
1391
307
306
562
892
701
692
689
538
1196
669
671
1199
550
273
546
547
263
555
560
564
858
1202
1534
2592
2591
2240
1862
2242
1276
1173
2519
2884
2803
3326
3272
3847
3788
1681
3674
4593
324
312
2677
3768
4594
4592
217
1282
1349
1334
1302
1307
1337
1297
1751
3389
2531
529
3968
219
513
531
1016
503
1339
4897
1087
1086
1207
603
756
1083
495
1425
6717
6901
4
1
894
2
895
897
1
2
3
894
895
897
5
901
903
8
906
6
2438
6
7164
6
67
6
24
6
6
6
1205
6
6
4147
6
6
6
6
6
1235
6
6
6
6
7140
5557
104
104
5519
6878
105
106
5710
6855
107
6855
107
5937
108
108
5899
6821
109
6821
109
6322
110
110
6255
6829
111
6829
111
6296
112
6737
113
6664
114
6796
115
6387
116
116
6328
6812
117
1621
1533
118
6812
117
7271
119
1825
120
120
1787
7248
121
2403
126
125
130
127
1015
905
128
127
915
903
906
128
129
915
906
129
130
1015
162
6562
6582
6570
6574
6596
6590
170
6024
6016
208
6037
6040
6036
204
6032
205
5830
398
220
5800
5611
5608
227
5641
233
5633
5640
234
233
558
1951
1952
314
1498
1494
490
6066
332
6062
6055
583
6198
6103
6074
346
6091
6094
351
6083
5805
2293
2135
2117
437
439
1878
1924
442
448
447
2126
2122
2125
6166
6167
499
6170
6164
504
6174
504
503
6188
510
510
6183
6182
509
513
519
519
5504
531
533
5501
537
5500
538
2348
541
2347
2344
2343
694
1958
555
557
1765
581
586
586
6205
6204
585
608
608
5888
5895
607
1969
2043
2355
2270
674
695
523
5433
523
882
879
883
879
880
1003
1003
881
880
884
883
882
881
894
889
128
922
921
920
6503
939
3663
3667
968
79
1012
1012
1182
1023
1025
1139
1022
1023
1025
1029
1034
1036
1036
1037
1041
1045
1046
1046
7596
7599
7599
1053
7597
1053
1077
1072
1183
7340
1083
1082
1085
1083
1084
1083
1085
1090
1095
1095
1113
1106
1106
1108
1111
1118
1111
1115
1116
1117
1130
93
1139
1182
1187
1183
7340
6
6
1250
2685
6
6718
7327
1648
7327
6718
1276
6718
1280
6441
1333
1333
79
3097
1470
1730
1560
1562
1488
1487
1498
1494
1563
1495
6073
1514
1512
1520
1519
1534
6815
6717
6717
1534
1546
1551
1578
7269
1620
1620
7271
7276
6773
6718
1702
1761
1770
1772
1774
1774
1773
1761
1765
1775
1775
7247
1460
1786
7249
7251
1798
1799
1826
7269
6717
6718
1844
7328
1836
6718
7257
7235
2027
1862
1874
1878
1924
1923
2134
1883
2133
2136
1881
1881
1885
1884
1888
1887
1967
1973
1973
1886
1888
1890
1891
1950
1951
1950
1953
1952
1963
1953
1955
1964
1964
1956
1958
1956
1966
1965
1969
1968
1968
1966
2043
1971
1464
1975
7224
1975
1464
7225
1988
7249
7249
7251
7251
2015
7247
1273
2019
1860
2051
7212
2080
2137
2135
2123
2126
2125
2122
2124
2127
2123
2130
2129
2131
2128
2141
2140
2149
2142
2142
2144
2145
2153
2151
2153
7201
7203
2177
7205
2176
2193
2191
2190
2204
7224
2208
6718
2222
6718
7212
2216
1265
2237
6718
1264
6718
2240
7189
2300
2286
2266
2271
2602
2356
2265
2270
2359
2271
2292
2287
2286
2294
2294
2293
2339
2335
2338
2338
2336
2348
2336
2341
2343
2342
2342
2341
2345
2347
2344
2346
2345
2349
2349
2359
2359
2353
2352
2432
2355
2357
2352
2376
2361
7177
7205
7205
2404
7201
2404
6717
2408
6718
2422
6718
7189
2416
7152
7153
2603
2610
7154
2604
7155
7277
2647
7177
7277
2646
7178
2647
4
1365
6
7140
2724
2721
3117
2816
2810
2815
2815
2811
2811
2830
2833
2810
2816
2819
2818
2817
2819
2817
2821
2824
1374
2850
7130
7131
2851
7132
7278
2894
7153
7152
7278
2893
4
2875
7154
2894
7155
7118
1251
2968
2970
3075
3071
3058
3077
3078
3059
3078
3058
3080
3064
3062
3064
3062
3065
3079
3069
3070
3066
3070
3065
3071
3073
3059
3077
3080
3079
3097
3104
7107
7114
7112
3110
3127
3126
3141
7130
4
4
7131
7132
3140
3141
1246
3400
3181
7095
3271
3207
3336
3339
3217
3217
3222
3221
3668
3314
3314
3317
3325
3309
3312
3309
3313
3321
3321
3329
3336
3333
3330
3329
1384
3344
7084
7085
3345
7086
7280
3357
7089
3388
3369
7112
7112
7114
7114
3388
7107
1241
3425
3428
7072
3475
3444
3441
3751
3444
3451
3518
3458
3450
3458
3451
3464
3462
3463
3462
3464
3482
3475
3482
3484
3487
3487
3486
3491
3490
3546
3489
3546
3550
3532
3533
3536
3537
3539
3547
3547
3551
3552
3553
3552
3570
3574
3574
3553
3562
3565
3559
3571
3568
3591
7061
3591
7062
3604
7066
3603
3623
3620
3621
3621
7089
7089
3635
7084
7085
3635
4
7281
3634
7086
3639
7072
3647
7078
7078
3691
3688
4004
3685
3688
3691
3997
3698
3760
3693
3759
3697
3701
3702
3701
3705
3824
3835
3835
3711
4106
3709
3710
3709
3711
3722
3722
3732
3726
3725
3732
3734
3745
3737
3749
3698
3693
3760
3758
3793
3766
3793
3766
3771
3774
3774
3773
3779
3778
3780
3777
3783
3784
3785
3786
3792
3794
3791
3795
3823
3822
3827
3823
3822
1394
7038
3838
7039
3839
7040
7282
3851
7043
3850
7066
7066
7061
3882
7282
3881
4
7063
7062
1231
3919
3922
7026
3944
4278
3942
3943
3944
4288
4285
3956
3958
4040
4040
4044
4021
4026
4025
4028
4021
4026
4024
4030
4031
4032
4033
4038
3697
4042
4051
4050
4045
4050
4046
4047
4046
4064
4064
4047
4048
4053
4057
4052
4053
4052
4057
4056
4056
4060
4059
4063
4058
4106
4060
4059
4058
4063
4065
1399
4085
7015
7016
4086
7017
7283
4098
4117
7043
7043
7038
4129
4133
7026
4141
6
7002
4257
4256
4253
4188
4526
4189
4188
4257
4192
4258
4199
4193
4205
4203
4255
4192
4259
4287
4262
4290
4230
4287
4291
4262
4261
4273
4267
4277
4278
4280
4277
4289
4288
4298
4293
4292
4298
4297
4297
4311
4294
4293
4311
4294
4314
4310
4312
6992
4332
6993
4333
6994
7284
4345
4364
4376
7015
4
7284
4375
7017
7016
4376
4635
4416
6980
4825
4565
4447
4447
4450
4452
4430
4461
4460
4470
4469
4473
4472
4513
4513
4509
4515
4515
4514
4464
4559
4559
4562
4539
4562
4540
4540
4545
4544
4541
4546
4551
4552
4552
4556
4556
4558
4558
4569
4569
4563
4564
4564
4572
4571
4579
6969
4579
6970
4592
6974
4609
4608
4623
6992
4
7285
4622
6993
4623
6994
1221
4413
4627
4882
4663
6957
4753
4688
5026
4685
4693
4685
4693
4699
4842
4738
4740
4740
4798
4798
4796
4786
4789
4801
4788
4787
4802
4809
4809
4794
4792
4791
4795
4796
4795
4786
4797
4803
4805
4804
4806
4806
4790
6946
4826
6947
4827
6948
7286
6953
6950
4843
4842
4839
4856
6974
4870
6969
4
4
6970
6971
4869
7286
4870
6934
4910
4926
4923
5233
4920
4921
4983
4984
4980
4944
4946
4951
4950
5394
5397
5397
4955
4957
4967
4965
4967
4960
4969
4968
4969
4973
4972
5007
5003
5003
5007
5009
5019
5021
6923
5073
7287
5074
6924
6925
5105
6950
6950
6950
5117
6946
5121
6934
5129
5155
1206
6911
5157
6917
5226
5204
5204
5203
5255
5232
4926
4923
5280
5283
5290
5290
5280
5281
5282
5281
5295
5295
5342
5282
5285
5298
5286
5299
5285
5286
5288
5291
5289
5288
5303
5303
5289
5291
5299
1424
6900
5320
7288
5321
6901
5364
6923
6924
5364
5363
6925
7288
4
5368
6911
5376
6909
6917
6917
6917
5393
5432
5728
5433
5504
5505
5493
5493
5506
5496
5497
5496
5499
5507
5501
5500
5499
5503
5503
6876
6877
5518
5525
6881
5530
5531
6900
5558
6718
6718
6863
5610
5633
5640
5635
5642
5642
5641
5608
5684
5684
5697
5687
5689
5709
5716
6853
6854
6858
5721
5722
6881
6881
6877
6876
5749
6718
1301
6842
5783
5800
6048
5802
5805
5850
5804
5804
5808
5807
5890
5891
5891
5810
6244
5808
5892
5811
5810
5893
5814
5813
5826
5827
5828
5831
5831
5830
5611
5845
5880
5885
5885
5875
5887
5880
5889
5888
5895
5889
5894
1436
5898
6820
6824
6858
6858
5938
6854
6853
5938
6717
5920
1297
5974
6762
6024
6016
6019
6017
6028
6030
6034
6031
6032
6033
6036
6035
6038
6039
6037
6045
6040
6047
6056
6062
6055
6061
6056
6064
6066
6065
6065
6064
6105
6103
6080
6083
6080
6086
6085
5984
6092
6094
6091
6093
6092
6104
6146
5802
6150
6165
6164
6174
6173
6173
6175
6175
6167
6166
6165
6168
6170
6168
6171
6172
6171
6177
6178
6178
6179
6179
6192
6180
6193
6191
6181
6183
6194
6182
6194
6181
6184
6185
6184
6186
6195
6195
6187
6190
6190
6188
6187
6197
6196
6198
6210
6210
6200
6202
6211
6211
6200
6203
6204
6203
6205
6207
6828
6254
6837
6272
6273
6286
6837
6285
6297
6828
6717
6824
6824
6323
6820
6717
6323
6815
6327
6806
6340
6795
6345
6345
6796
6388
6795
6717
6370
6717
6388
1285
6394
6405
6395
6718
6718
6784
6405
6403
6718
6718
6424
6784
6453
6718
1292
6718
6762
6461
6718
6486
6718
6747
6506
6505
6504
6718
6747
6511
6718
1292
6754
6562
6564
6564
6567
6573
6570
6572
6582
6581
6586
6591
6590
6600
6602
6591
6592
6596
6604
6597
6598
6597
6599
6605
6605
6600
6693
6606
6609
6612
6607
6613
6612
6614
6611
6616
6616
6736
6622
6622
6737
6638
6742
6639
6642
6640
6638
6644
6652
6651
6742
6742
6742
6665
6736
6717
6717
6665
6725
1290
6703
6677
177
176
6614
6611
6606
6693
177
178
6146
5497
565
564
1773
6202
668
2356
708
1487
1488
756
5727
883
895
882
882
894
894
882
882
894
906
128
906
128
128
906
915
903
903
915
1813
1812
3773
3779
3781
3778
3776
4051
4045
4083
3708
4470
4544
4541
4600
4792
4794
6909
4950
6974
6974
7070
3221
894
894
894
894
895
897
897
895
897
895
895
897
897
895
897
895
895
897
897
895
897
895
897
895
895
897
895
897
897
895
897
895
895
897
897
895
895
897
897
895
895
897
895
897
897
895
895
897
895
897
897
895
897
895
897
895
895
897
897
895
895
897
897
895
897
895
895
897
895
897
897
895
903
901
901
903
901
903
903
901
901
903
903
901
901
903
903
901
901
903
901
903
901
903
901
903
901
903
903
901
901
903
901
903
903
901
901
903
901
903
903
901
903
901
901
903
901
903
901
901
903
903
901
903
901
901
903
901
1512
1514
1890
1891
1891
1890
1955
714
2080
2129
446
2141
2140
554
2141
2140
553
1886
1886
2335
2339
546
546
2970
2968
2968
2970
3066
3069
3464
3462
3566
3222
3222
3222
3669
3667
3822
4063
4058
4047
4064
4205
4203
4600
4205
4203
4292
4298
4548
4790
4804
4688
4951
5394
5394
4951
5625
5624
5625
5624
5727
5728
5814
5813
5807
5890
5892
5811
606
5892
5811
5895
5888
6170
6180
6192
750
6180
6192
6186
6185
6186
6185
6205
6204
6196
580
579
6196
6202
6272
505
6272
6312
922
921
827
826
6506
6504
173
6643
6644
6643
906
8
8
906
906
8
8
906
906
8
906
8
906
8
8
906
906
8
906
8
8
906
8
906
8
906
8
8
906
906
8
906
8
8
906
906
8
906
8
8
906
906
8
8
906
906
8
8
906
2
894
894
2
894
2
2
894
894
2
2
894
2
2
894
2
894
894
2
2
894
894
2
2
894
894
2
894
2
894
2
894
2
894
2
894
2
2
894
2
894
2
894
2
894
2
2
894
2
894
2
2
894
894
2
2
894
894
2
2
894
894
2
2
2
894
6806
6806
6824
5911
4533
4191
4194
3120
894
2
894
2
894
2
8
906
8
906
8
906
906
8
8
906
882
894
2
4699
4847
6188
897
897
895
901
903
901
903
897
895
897
895
6174
6164
149
6586
895
897
897
895
895
897
903
901
903
901
901
903
895
897
702
1951
1952
1969
1965
8
906
8
906
2
894
3805
4034
4031
4032
2
894
894
2
894
2
2
894
894
2
906
8
906
8
8
906
906
8
8
906
906
8
8
906
8
8
906
8
8
906
906
8
894
2
894
2
2
894
5086
518
5432
5433
897
895
901
901
903
903
901
901
903
903
901
895
897
897
895
897
895
897
895
6024
6016
6086
5984
349
6167
6166
895
897
897
895
897
895
903
901
901
903
903
901
903
901
903
901
8
897
895
897
895
897
895
897
895
2356
3066
3069
2
894
906
8
906
8
8
906
8
906
8
906
906
8
8
906
894
2
2
894
894
2
894
2
2
882
882
882
882
3795
3792
7070
7070
3537
3201
4609
906
8
906
8
6909
6909
4533
4194
4193
6182
6183
6034
6032
903
901
903
901
901
903
895
897
895
897
158
6567
161
895
897
903
901
903
901
903
901
2721
2722
2
894
906
8
3205
4310
3688
3691
4052
4057
4273
4267
4276
6953
6953
6267
6028
5689
5432
5433
6837
6837
7276
7276
1551
901
903
3062
3064
3209
3532
3534
1883
2134
437
915
915
5709
7340
7340
1428
5518
6717
6717
1425
2830
1183
1183
915
903
915
6
6718
915
915
6736
915
915
6784
6784
6207
1394
3838
6638
915
915
915
915
915
903
915
903
1347
6718
915
915
903
1273
1862
2019
3701
915
915
3071
3071
6717
1429
6717
5709
4133
4133
3309
6
6970
6971
6971
4580
3313
3313
7340
7340
915
2818
915
915
903
6
58
3892
3673
6
1235
915
1333
1333
1333
1333
1333
1333
1333
1333
1464
1975
2341
2408
2408
2824
2824
2830
2894
3207
3207
3336
3701
3701
3734
1231
3919
1231
3922
1231
3922
3944
3944
3944
5117
5117
5368
5368
5642