# vtk DataFile Version 2.0 
Created by AlgoHex
ASCII
DATASET UNSTRUCTURED_GRID
POINTS 694 double
102.989 9.73087 3.556
100.211 9.73087 -3.556
111.431 6.23431 -3.556
108.652 6.23431 -0.310192
111.431 -10.6486 -2.04567
108.652 -10.6486 0.0672798
102.989 -14.1451 -0.27035
91.7694 -10.6486 -0.939427
91.0511 -2.20713 0.276554
88.2729 -2.20713 -0.472761
-0.259853 -1.5875 -4.19733
36.83 0 12.827
32.9744 0 10.7121
6.38672e-15 -3.175 14.097
-4.45768 0 8.509
89.3884 57.8302 5.7266
36.83 0 10.668
36.83 0 -5.842
36.4494 -2.58367 -12.6061
94.234 9.66312 -3.556
87.63 -2.20713 3.556
8.3947e-15 -1.5875 11.938
8.3947e-15 -1.5875 -7.112
-0.897467 -1.5875 -11.7649
78.9205 49.8868 -8.91618
79.0618 50.6715 -5.51791
58.9558 29.9221 -11.2284
22.9317 22.6804 -1.21485
22.9317 22.6804 1.21485
22.687 22.5882 -0.199638
105.597 46.7915 3.556
54.8568 31.3704 -5.08
32.9744 -3.175 -10.7121
8.05079 -1.34593 -7.747
10.9403 -1.5875 -8.509
27.212 21.1236 -8.509
16.3769 0.381 5.334
16.3738 0.731923 -6.24854
15.5553 0.466262 -6.45934
14.2203 0.381 3.26386
4.67502 6.93889e-15 6.95678
6.01074 -3.175 7.747
10.7881 -1.25834e-12 -5.82449
6.01074 -3.175 -7.747
4.67502 6.93889e-15 -6.95678
28.958 -3.175 8.509
4.18759 -3.175 11.36
4.18759 -3.175 -11.36
39.2201 10.1806 4.35746
39.2359 -3.175 12.1428
-4.45768 0 -8.509
8.54966 -3.175 8.509
10.9403 -1.5875 8.509
10.6818 -6.56632e-13 -2.74954
55.6111 30.8083 5.08
80.0694 48.3952 -8.34764
80.9467 55.4247 -5.08
52.3707 25.3604 9.60623
41.0957 24.2455 -2.52198
42.6181 27.7137 1.90403e-15
25.5331 23.2314 -5.89027
101.375 40.5733 -4.45008
21.6714 19.7331 -3.24527
20.5703 19.5947 -0.199638
23.144 6.55358 5.66114
21.6714 19.7331 3.24527
68.2495 47.4642 -5.28418
72.3775 48.8469 0.635988
45.154 0.577235 9.82694
70.9824 44.1039 3.96435
74.1885 45.1548 -6.604
31.9214 0.381 4.43511
14.6147 0.381 4.62318
29.339 19.2111 -2.85114
31.7097 20.8711 4.11832
26.164 0.381 2.85114
109.522 -11.847 -0.668588
94.0495 -11.7144 0.193233
89.8231 -3.58689 0.549393
34.7403 -1.16003e-16 9.4615
8.42231e-15 -1.5875 7.112
100.601 10.6961 0.094395
110.736 7.43733 -3.556
100.611 38.1499 -4.45014
88.6458 -1.25997 -0.213759
32.0328 7.30802 -8.31089
27.5432 22.1726 -8.509
2.08972 -1.25582e-12 -8.3185
2.08972 -1.25929e-12 8.3185
40.3128 -3.175 10.6289
0.789568 -3.175 -14.0283
110.203 -9.26882 -0.549393
76.9657 50.0873 5.08
68.3136 44.2534 1.16783
108.463 9.89619 -3.556
104.116 42.093 3.556
-0.259853 -1.5875 4.19733
-1.84607 -1.5875 2.48406
-1.47729 -1.5875 -3.68295
108.182 19.2284 0.827369
105.334 14.9615 -0.849192
66.6692 42.1741 2.53196
54.3788 39.4744 2.161e-15
101.6 8.34174 -2.66454e-15
109.902 4.85224 -0.571046
36.83 -1.5875 5.842
114.584 -3.12149 -0.207475
100.552 -15.0573 0.0215477
-2.413 -1.5875 9.525
109.025 7.18147 -0.213759
104.75 44.1037 3.556
61.2134 28.7791 -8.128
114.927 -2.20713 -1.05479
44.9665 25.3653 4.2673
67.1519 46.4896 -5.20016
73.9918 47.0596 -4.77718
21.6714 9.525 -3.24527
20.9553 2.97625 6.42051
28.6886 1.79921 -2.85114
50.4835 23.0923 -7.70802
103.75 30.3744 -1.905
112.149 -2.20713 0.198274
93.6498 -2.20713 -1.96353e-15
48.5437 33.3326 0.716075
105.512 49.6197 3.7045
100.524 20.1415 -1.905
68.0742 45.9844 -3.05212
108.798 -5.51633 -0.668947
108.434 -6.24706 -0.422155
107.979 -6.94628 -0.218182
107.448 -7.59298 -0.0546831
27.1228 16.8673 -8.44276
75.8172 48.9388 -5.08
2.08972 -2.8881 -8.3185
3.13865 -3.175 -11.0458
2.08972 -0.35652 -10.7315
-4.1847 -2.66459 -7.68946
-3.91172 -2.15418 -6.86992
-3.63874 -1.64377 -6.05038
-3.36576 -1.13337 -5.23084
-3.09277 -0.622956 -4.4113
-2.81979 -0.112548 -3.59176
20.7602 -3.175 -7.16452
22.3827 -3.175 -6.07726
25.1418 23.212 -5.38072
25.3374 23.2217 -5.63549
12.4787 0.0891382 -5.01231
1.09655 -3.40858e-15 -4.44419
2.19309 -3.34771e-15 -4.69739
18.841 -0.0777563 8.509
0.952132 -2.65813 4.34569
14.4597 0.13214 -8.509
15.2532 0.26428 -8.509
19.0215 -3.175 -7.11194
1.63907 -2.38125 -13.3612
2.48858 -1.5875 -12.6942
3.33808 -0.79375 -12.0271
1.43964 -3.175 -12.3799
30.3296 19.9047 4.18017
29.6842 19.4528 3.75066
37.8427 -1.29184 -12.3744
34.0904 -1.24889 -11.4988
35.2064 -2.49778 -12.2855
28.0902 0.381 5.334
28.8294 0.822518 4.76894
28.8937 0.601759 5.05147
38.434 -2.11667 12.3708
37.632 -1.05833 12.5989
19.4643 1.1929 -8.509
20.8061 1.92747 -8.509
97.9851 -8.66 -3.67011e-15
19.995 0.381 5.334
22.0076 0.381 5.334
3.50287 2.11701e-15 12.1689
2.8185 -3.175 12.9774
70.2267 48.8487 5.28418
102.946 22.7573 -0.381
101.126 22.0516 -1.905
94.506 12.7005 3.556
17.3015 0.381 -5.334
115.358 0.218732 1.905
35.6045 -6.80273e-17 -6.54953
94.3096 -0.614236 -2.08851e-15
36.83 0 -4.7625
60.0108 42.6257 -10.1539
77.7291 50.8506 -5.08
68.5163 48.1124 -5.93862
96.9817 -8.24439 -3.72581e-15
111.396 22.6853 -1.18128
111.579 21.6466 -1.7432
71.087 39.7256 -8.128
71.4809 41.3479 -8.128
72.7113 40.8839 -8.128
73.9418 40.4199 -8.128
106.871 -8.15824 0.105074
105.627 -9.05128 0.386791
110.895 -9.62058 0.0288737
95.9591 3.36801 -2.40096e-15
106.265 -8.63968 0.258716
75.0251 53.1388 -10.1539
75.9933 53.8167 -10.1539
76.9614 54.4946 -10.1539
94.9694 0.97866 -2.21349e-15
109.028 -2.9486 2.721
108.885 -3.6928 2.80437
108.603 -4.47076 3.00086
95.2231 -14.5648 -2.94398
96.5872 -15.1285 -1.449
99.9919 -9.49124 -3.55871e-15
89.099 3.85252 2.76305
88.7586 3.00208 1.84203
88.4181 2.15165 0.921017
88.0108 -3.62248 3.556
88.3916 -5.03782 3.556
88.7724 -6.45317 3.556
89.1532 -7.86851 3.556
110.717 17.7555 3.556
69.6885 48.4718 5.28418
102.823 -13.7899 -0.244644
102.657 -13.4346 -0.218939
100.397 -13.6716 -0.0333337
96.6488 3.81983 -0.313477
97.1407 4.52814 -3.81
95.2993 1.77511 -2.27598e-15
57.1893 40.6501 -10.1539
100.824 21.093 -1.905
93.4461 8.83668 -3.556
92.6581 8.01023 -3.556
91.8679 7.18142 3.556
91.0822 6.35734 -3.556
90.2905 5.52696 3.556
89.5018 4.69972 3.556
95.3962 -6.42336 -3.32702e-15
115.453 -0.424711 2.23242
106.97 3.63408 -0.499546
93.9797 -1.41068 -2.02602e-15
109.409 -0.874882 -0.610193
108.49 20.0556 1.905
23.7808 9.525 -5.6108
22.6663 9.525 -4.39979
29.6444 19.4249 -3.57721
0.782491 -1.5875 11.7871
48.4494 30.2848 6.62308
45.9264 24.4546 -4.75484
-1.23615 -2.03845 7.57866
-1.97114 -3.01711 8.21572
31.7097 19.3894 4.11832
21.6714 13.4402 3.24527
28.4893 21.4955 -8.509
72.0858 44.1298 5.28418
73.2221 44.1884 6.604
-0.757209 -2.50234 13.7324
-1.51442 -1.82969 13.3678
-2.27163 -1.15703 13.0033
-3.02884 -0.484374 12.6387
65.7084 37.3336 3.37336e-15
66.6899 38.3151 3.39481e-15
101.184 39.9674 -4.4501
112.533 16.2415 0.857146
106.32 51.4753 1.905
114.811 -2.71641 3.4765
104.284 27 -0.381
103.937 25.8989 0.381
61.0672 27.9751 -8.63665
62.4137 44.3082 -10.1539
63.6283 45.1587 -10.1539
50.2707 22.8366 -5.28857
50.3771 22.9645 -6.49829
100.993 39.3616 -4.45011
103.595 24.8139 -0.381
67.8267 49.7449 -8.78734
68.0221 50.7768 -8.04447
103.264 23.7636 -0.381
100.249 19.2721 -1.905
101.492 18.1436 -0.381
101.224 17.2956 0.381
108.901 17.724 -1.905
113.137 12.8113 1.905
110.497 -12.8469 -3.556
109.596 -13.4555 -3.556
108.694 -14.0641 -3.556
107.793 -14.6727 -3.556
114.885 -6.27421 -0.0676313
114.52 -7.27118 -0.155253
113.991 -8.24201 -0.279282
113.462 -9.21284 -0.40331
97.2858 31.9927 9.77153
26.4755 0.493109 -0.231347
17.4376 2.41202 -2.27906
32.2473 -1.73472e-15 -9.61053
38.2436 7.84718e-17 -6.65815
-1.70697 -1.5875 -0.500363
-1.71975 -1.5875 0.51763
-1.76511 -1.5875 -1.49584
-2.7596 -2.7731 -2.54749
-2.7596 -2.29417 -1.5184
-2.7596 -1.81523 -0.48932
-2.7596 -1.33629 0.539765
-2.7596 -0.857357 1.56885
-2.7596 -0.378421 2.59793
3.04532 -2.30514e-16 -5.40425
3.90953 -1.8772 -6.00872
-1.94781 -2.98604 -8.1955
-1.19681 -1.98608 -7.54457
112.975 -10.2511 -3.556
112.172 -11.1961 -3.556
111.37 -12.1411 -3.556
1.11541 -1.25588e-12 -11.294
0.52243 -1.25591e-12 -7.41362
1.04486 -1.25588e-12 -7.71525
5.32881 -1.77541 -7.39214
7.2802 -3.175 -8.128
4.96808 -3.175 -10.4368
7.2802 -6.26235e-13 -8.128
9.74499 -0.79375 -8.509
10.5309 -1.25727e-12 -6.34933
-4.22885 -2.54 -9.34224
-4.00002 -1.905 -10.1755
-3.77119 -1.27 -11.0087
-3.54236 -0.635 -11.842
-1.75491 -1.5875 1.52018
1.62758 -2.55966 7.91794
1.16544 -1.94431 7.51737
0.631954 -1.5875 7.23389
2.08972 -1.25929e-12 9.76226
2.89532 -2.07895 5.07729
2.0272 -0.729627 4.6251
-0.937813 -1.64122 11.7299
-1.51377 -2.40811 11.2307
-2.8165 -3.0686 3.58188
-3.09003 -2.55717 4.40307
-3.36356 -2.04573 5.22426
-3.63709 -1.5343 6.04544
-3.91062 -1.02287 6.86663
-4.18415 -0.511434 7.68781
-3.6495 -0.270956 12.0461
-3.9189 -1.23897 10.8671
-4.18829 -2.20699 9.68804
1.91011 -0.23915 10.8872
1.36364 -0.966782 11.3608
110.843 -11.6669 3.556
1.97214 -3.175 13.5097
0.985818 5.47239e-17 13.8034
5.33469 -3.175 10.0032
4.76114 -3.175 10.6816
9.74499 -2.38125 8.509
7.2802 -3.175 8.128
5.32057 -1.79386 7.39204
3.70059 -3.175 5.7341
13.2823 0.376614 4.86066
12.1638 0.188307 5.08016
15.4958 0.381 4.97859
19.1308 -1.00832 5.334
17.4135 0.381 5.334
18.0012 0.721933 8.509
17.274 -3.175 8.509
16.1751 -3.175 8.509
15.0762 -3.175 8.509
13.9773 -3.175 8.509
13.0604 -2.86873 8.509
7.2802 -6.26235e-13 8.128
20.2099 2.2229 7.16617
18.0508 1.18182 -6.77684
24.1173 -2.14071 -5.334
16.0651 1.44407 -2.61612
16.4692 1.75611 -2.40009
16.8733 2.06814 -2.18407
13.4711 0.321357 -4.36662
15.2645 0.86375 -4.07265
15.6644 1.15125 -3.28208
19.4645 1.46955 7.91183
16.3368 1.69463 3.06356
15.9292 1.40087 3.47902
15.5216 1.10711 3.89448
15.114 0.81335 4.30994
27.5351 25.6999 -1.905
29.339 19.2111 -1.06479
27.212 19.0434 -8.509
28.2689 22.8962 -8.509
27.906 22.5344 -8.509
47.734 19.6569 2.36346
45.2083 29.8795 1.15716
45.867 24.4647 -4.71444
45.2101 25.1217 -4.38791
44.5531 25.7786 -4.06138
51.5561 24.3814 -9.56149
38.9197 -3.175 -9.02831
100.946 -15.9882 -3.556
45.4167 1.52425 10.8291
35.4369 -7.73351e-17 9.86367
36.1334 -3.86676e-17 10.2658
33.9383 -2.38125 11.2408
34.9022 -1.5875 11.7695
35.8661 -0.79375 12.2983
25.8351 -3.175 8.509
27.3966 -3.175 8.509
20.5703 16.3726 -0.199638
38.2231 7.73351e-17 9.86367
37.5266 3.86676e-17 10.2658
21.9594 21.755 -2.33197
102.337 -16.0259 -3.556
105.05 -15.4184 3.556
106.031 -15.1987 3.556
107.013 -14.979 3.556
98.9885 -9.07562 -3.61441e-15
89.5664 -9.26707 3.556
90.6333 -10.3274 3.556
91.7001 -11.3877 3.556
92.7669 -12.4479 3.556
93.8338 -13.5082 3.556
104.565 5.11047 -0.919153
72.823 51.5969 -10.1539
73.9352 52.3756 -10.1539
99.9883 7.28529 3.556
72.365 51.2761 10.1539
73.3448 51.9622 10.1539
74.3246 52.6483 10.1539
90.5638 -3.21098 -0.0723944
91.9633 -10.1672 2.74138
92.2435 -11.6346 -0.279725
102.491 -13.0793 -0.193233
75.6143 46.5806 -8.128
76.5306 47.4969 -8.128
77.4469 48.4132 -8.128
104.167 -9.67043 0.902931
101.987 -15.7522 3.556
94.2319 -3.61254 -2.41803e-15
94.8141 -5.01795 -2.87252e-15
90.3526 -1.05673 0.376691
112.964 -1.02797 -0.223264
112.39 -1.58786 -0.0190429
104.94 -9.3988 0.562249
97.0494 31.2119 -9.52681
94.6395 0.182212 -2.151e-15
110.914 5.33999 -3.556
95.9784 -7.82877 -3.78151e-15
95.6292 2.57156 -2.33847e-15
107.816 2.71925 -0.539742
108.541 1.63608 -0.510685
94.234 11.7047 3.556
94.234 10.6839 3.556
102.594 10.4146 3.556
105.951 4.41439 -0.654947
100.391 10.1976 2.71624
102.823 9.27996 3.05457
115.073 -5.24903 -0.0192808
114.812 -2.70668 -3.47512
113.926 -0.948006 0.40861
112.354 -2.71618 0.151164
112.556 -3.13755 0.256266
112.747 -3.29863 0.813261
109.08 0.402604 -0.636037
102.843 5.57495 -0.773185
108.839 5.76073 -0.0482162
114.116 7.26164 0.988667
108.839 6.70789 -0.261975
96.7428 31.3328 10.13
82.7941 47.0252 -5.08
73.9363 44.9026 6.604
75.3446 48.4661 5.08
68.4452 41.5668 5.08
73.7276 44.6939 -6.604
61.1423 43.4179 10.1539
55.1923 39.2518 10.1539
57.9237 41.1643 10.1539
56.218 41.3136 2.20118e-15
63.2398 44.8866 10.1539
64.4484 45.7329 10.1539
65.6571 46.5792 10.1539
66.8657 47.4255 10.1539
65.4003 36.3666 -8.128
73.2632 44.2295 -6.604
76.9714 42.8495 -8.128
76.8948 43.9316 -8.128
76.3578 45.1852 -8.128
72.3585 43.3248 -8.128
72.8178 43.7841 -8.128
73.2771 44.2434 -8.128
73.7188 44.6851 -8.128
96.6757 30.8088 -9.81351
96.3316 30.1404 -9.78575
78.0412 55.2507 10.1539
79.0569 55.9619 10.1539
75.2778 53.3157 10.1539
76.1656 53.9374 10.1539
77.0535 54.5591 10.1539
68.0058 48.2238 10.1539
68.8685 48.8279 10.1539
69.7312 49.432 10.1539
70.5939 50.036 10.1539
71.4565 50.6401 10.1539
97.1519 50.9926 11.4031
91.4471 48.2444 2.79405
102.598 37.2807 -3.556
96.7354 30.7315 9.65178
96.3051 30.0643 9.76243
103.343 29.0842 -1.905
103.254 28.8022 1.905
30.6217 27.8612 1.905
34.6188 30.6599 -1.905
31.0202 20.3883 4.28469
21.6714 17.094 3.24527
24.3067 20.7229 -6.1863
0.23225 -3.175 6.18458
1.97385 -3.175 -7.05596
2.30515 -1.25992e-12 -7.25433
-2.77505 -6.75313e-13 -6.52538
-2.50207 -6.75703e-13 -5.70584
1.74314 -3.175 -5.6542
2.57377 -3.175 -6.22786
2.99263 -1.25961e-12 -7.94624
0.549036 -9.49365e-13 5.2812
1.47886 -8.56059e-13 5.60611
11.9362 -3.175 -4.73375
12.4758 -3.175 -5.8086
14.3725 0.366862 -6.24125
29.2465 14.4879 8.509
2.28915 -3.175 -11.7128
-1.61702 -3.175 6.26602
-2.07823 -3.175 7.02623
-3.04228 -3.175 7.38554
0.304204 -3.175 -6.21493
2.68403 -3.175 11.5828
91.0551 4.66125 -3.556
90.8275 3.5995 -3.556
90.6 2.53776 -3.556
90.145 0.414273 -3.556
92.685 4.58396 -3.556
92.4575 3.52221 -3.556
92.23 2.46047 -3.556
94.9103 -12.5563 -3.556
103.203 -9.90602 0.996742
13.113 -3.175 -3.57383
89.3928 -4.87808 -3.556
89.8182 -6.34601 -3.556
91.1439 -7.00758 -3.556
70.4732 41.4395 -7.366
70.9876 41.954 -7.366
-2.52959 -3.175 7.79038
-3.49364 -3.175 8.14969
90.9613 -3.57535 3.556
91.0873 -5.10876 3.556
95.5632 8.78012 3.556
94.1782 7.97905 -3.556
96.8925 7.89712 3.556
95.7918 7.30797 3.556
94.1225 6.29498 -3.556
111.21 3.32266 3.556
91.6443 -8.37476 -3.556
90.8422 -9.21051 -3.556
93.3903 7.15261 -3.556
92.6023 6.32616 -3.556
91.8144 5.49971 -3.556
93.3345 5.46854 -3.556
112.524 1.96871 3.556
111.974 -3.70199 -3.556
111.714 -4.61076 -3.556
29.7363 10.3126 3.51431
105.283 -13.6054 3.556
4.84124 -1.26274e-12 8.35997
106.903 -13.2575 -3.556
112.195 -9.51519 3.556
-2.1297 -3.175 4.95149
-2.40323 -3.175 5.77268
-2.67676 -3.175 6.59386
1.10942 -1.26175e-12 6.55692
4.16963 -3.175 9.18355
33.8114 25.4679 8.509
30.1884 22.9198 8.509
114.758 -2.71799 -0.688373
71.4173 42.3836 -7.366
75.8776 46.8439 -7.366
100.736 22.138 -2.99268
100.415 9.17814 -2.91706
19.2797 2.73421 -4.80474
19.6616 2.54232 -5.64052
111.635 -8.9981 -3.556
40.1607 1.84891e-16 -8.65545
-1.79417 -3.175 -4.19826
-2.21869 -6.86716e-13 -4.90029
0.669915 -3.175 -5.32859
-1.50461 -1.26253e-12 -6.25994
-1.01299 -1.26307e-12 -5.5922
-3.49724 -3.175 -8.1326
-3.0513 -6.71619e-13 -7.34489
-2.53679 -3.175 -7.7562
-2.10345 -1.15529e-12 -6.99862
-0.570943 -1.26205e-12 -4.92586
-2.87904 -3.175 -8.99893
0.66778 -6.29668e-13 -12.8255
1.20456 -3.175 -6.5797
4.04521 -3.175 -7.78173
4.67722 -1.26275e-12 -8.3889
4.03915 -1.21635e-12 -9.44446
5.74857 -3.175 -9.51359
3.34348 -3.175 -6.96128
2.37826 -8.32538e-13 6.06674
1.64913 -3.175 6.82739
2.25303 -3.175 7.21764
-0.653946 -3.175 4.87869
-1.04804 -3.175 5.56006
-2.87904 -8.39683e-13 9.15749
3.01631 -3.175 7.88603
-1.81223 -3.175 4.29585
3.13469 -9.97088e-13 6.6561
1.3959 -6.29627e-13 12.5612
2.02399 -3.175 12.1986
0.493034 -3.175 12.8707
3.68615 -3.175 9.97128
3.27631 -3.175 10.7756
5.90824 -3.175 9.32472
4.00932 -1.08445e-12 7.64852
18.5923 2.39394 -4.62759
18.9742 2.20205 -5.46337
17.95 1.9781 -4.68435
18.3002 1.83948 -5.35525
17.3206 1.5407 -4.80781
17.6221 1.44504 -5.46019
15.7878 0.852418 -5.02441
14.3518 0.381 -3.71697
14.4832 0.381 -4.17008
16.0872 0.799906 -5.6211
16.5784 1.20298 -4.8883
16.8581 1.12665 -5.53234
16.6567 0.381 -2.97794
105.927 -13.4536 -3.556
29.3702 20.9216 -8.509
101.056 -15.3348 -2.90989
112.998 -7.73293 3.556
112.591 -8.64339 3.556
23.0314 17.1616 -4.82349
110.551 -7.45399 -3.556
110.074 -8.33309 -3.556
111.93 -7.13399 3.556
113.634 -4.79617 3.556
81.8617 47.4081 -8.36186
98.1017 -12.6762 3.556
76.6053 47.5717 -7.366
102.094 -10.0976 0.399339
103.621 -13.5231 -3.556
103.326 -13.0512 -3.556
91.9972 1.87384 3.556
91.5973 0.436471 -3.556
107.764 -12.878 -3.556
105.066 -12.3388 -3.556
104.121 -12.7183 -3.556
113.39 -5.61371 -3.556
91.2005 -0.338093 3.556
108.555 -12.3648 -3.556
102.593 -15.103 0.463664
96.1533 -12.5198 3.556
94.9836 31.3552 -8.02616
58.4031 37.1542 -5.08
90.0404 -7.2515 3.556
106.033 -11.948 -3.556
112.234 0.184953 3.556
110.997 1.53085 -3.556
111.582 0.118634 -3.556
113.302 -6.64733 -3.556
112.85 -4.45297 3.556
112.491 -5.33613 3.556
112.197 -6.23431 3.556
111.63 1.66243 3.556
111.695 -0.272354 3.556
112.896 0.500195 3.556
104.129 8.16248 3.556
105.864 7.4427 3.556
104.473 10.1692 -3.556
111.762 -8.01458 -3.556
57.7425 36.2952 5.08
58.9443 38.2273 4.67247
65.5102 36.4765 -7.366
71.873 42.8393 -7.366
73.2678 44.2341 -7.366
73.7326 44.6989 -7.366
74.6147 45.5811 -7.366
75.063 46.0293 -7.366
75.5145 46.4808 -7.366
72.3323 43.2986 -7.366
74.1791 45.1454 -7.366
72.7916 43.7579 -7.366
105.137 20.7408 -0.381
94.7028 31.4702 7.43764
90.2928 1.62387 3.556
111.362 -5.66723 3.556
110.954 -6.65102 3.556
30.2707 12.8065 4.18863
32.7022 23.5615 8.509
30.5847 18.8924 8.509
30.9584 17.3343 4.15624
107.913 -11.0753 3.556
106.924 -11.5146 -3.556
28.2097 11.4796 8.509
29.5975 21.5107 -1.5728

CELLS 35 127
1 45
1 48
1 64
1 71
1 73
1 74
1 75
1 116
1 117
1 159
1 163
1 164
1 165
1 240
1 243
1 246
1 376
1 380
1 688
1 692
2 500 74
2 165 71
2 64 117
2 163 75
2 692 64
2 158 159
2 500 158
2 164 163
8 246 689 688 380 74 500 73 243 
8 689 688 45 165 246 380 48 71 
8 689 686 164 165 688 516 395 45 
8 557 163 394 692 116 75 117 64 
8 516 692 240 376 686 557 159 158 
8 73 688 516 376 500 689 686 158 
8 164 163 394 395 686 557 692 516 

CELL_TYPES 35
1
1
1
1
1
1
1
1
1
1
1
1
1
1
1
1
1
1
1
1
3
3
3
3
3
3
3
3
12
12
12
12
12
12
12

CELL_DATA 35
SCALARS CellEntityIds int 1
LOOKUP_TABLE default
297
306
493
567
577
578
573
481
416
576
563
585
564
253
26
54
214
436
408
415
940
875
676
883
669
940
940
959
1
1
1
1
1
1
1
