# vtk DataFile Version 2.0 
Created by AlgoHex
ASCII
DATASET UNSTRUCTURED_GRID
POINTS 30 double
-0.0282602 -0.123816 -21.6408
0.283881 0.49362 -20.547
0.0546174 -0.173663 -21.5079
-2.21553 1.97755 1.1809
-1.39768 0.934799 -7.22231
-0.320351 -0.0642712 -21.1586
2.80295 -2.85045 1.60891
0.0731286 -0.805181 -19.9955
1.2898 1.26947 -0.262811
5.12882 2.84115 3.7592
0.183401 0.505232 -20.6153
-0.0217794 -2.21553 1.23513
0.334903 3.36694 0.905564
-3.16373 -0.17109 3.7592
4.38471 2.50807 3.7592
4.70607 2.63719 3.21852
0.216367 5.17406 3.7592
-2.25547 4.51831 3.7592
-2.56408 4.72935 3.20001
-3.2879 0.0993682 0.797376
-3.76591 2.1641 2.00686
-0.988487 -5.04133 3.7592
-4.03013 -0.158642 3.27423
3.98621 -0.130354 3.31588
-0.628048 -3.89865 3.25297
4.26703 1.91853 3.26771
0.189866 3.97899 3.25856
-3.7984 -0.128061 2.69649
-0.543266 -3.79196 2.70803
3.64206 -0.0922829 2.76678

CELLS 0 0

CELL_TYPES 0

CELL_DATA 0
SCALARS CellEntityIds int 1
LOOKUP_TABLE default
