# vtk DataFile Version 2.0 
Created by AlgoHex
ASCII
DATASET UNSTRUCTURED_GRID
POINTS 424 double
-0.750234 -2.48897 9.21181e-16
0.0217199 0.0530609 -21.6408
-1.69332 -5.61774 3.7592
-2.21553 2.21553 3.7592
2.21553 2.21553 3.7592
2.21553 -2.21553 3.7592
2.21553 2.21553 0.9398
2.21553 -2.21553 0.9398
2.54864 0.512083 2.54001e-10
-0.0489522 0.975 -19.5888
2.11906 -1.67787 0.11915
-1.6969 -0.066902 -9.81168
0.235379 -1.25532 -18.8633
-0.172018 0.17806 -21.3497
-0.00448736 0.874807 -19.8322
-2.84501 2.17127 2.08584
2.93495 2.24387 2.11234
1.12471 1.08658 -18.1716
0.969133 -1.0891 -18.4264
0.121245 -1.08972 -19.2987
0.169484 -1.17638 -19.0761
0.354571 -0.435668 -20.5854
0.971682 -0.973402 -18.6262
-2.21553 -0.432237 2.93168
2.08476 -1.91553 0.266507
-0.650955 1.47616 -18.052
-0.444462 -0.314465 -15.9914
0.190952 -0.0747088 -21.4524
0.312814 -0.372795 -20.767
-0.583107 1.45252 -18.1678
-1.85328 1.57496 -0.207849
-0.745466 -0.946491 0.9398
2.06053 -1.84114 0.18838
1.05537 0.959114 -1.52502
3.00858 3.12395 3.7592
-0.722498 1.48255 -17.9651
2.21553 2.02293 3.7592
-2.21553 -1.27669 3.7592
-2.21553 -2.21553 3.7592
0.789302 5.81402 3.7592
-0.893098 5.79902 3.7592
-4.74498 3.45095 3.7592
-2.21553 2.14565 3.7592
2.13592 2.21553 3.7592
1.93871 2.21553 3.7592
2.21553 -2.13371 3.7592
2.21553 -1.95746 3.7592
2.21553 -0.551268 3.7592
-1.08856 -2.21553 3.7592
2.13942 -2.21553 3.7592
2.21553 2.1435 3.7592
2.05715 2.21553 0.9398
2.21553 -2.04469 0.9398
2.21553 -2.14947 0.9398
-2.21553 2.21553 3.5994
2.21553 2.14987 0.9398
2.15154 -2.21553 0.9398
2.21553 -2.21553 3.27527
-2.21553 -2.21553 3.42074
-2.21553 -2.21553 3.5902
-2.21553 2.21553 3.27517
2.21553 2.21553 3.59929
-2.21553 2.21553 0.9398
0.43765 -0.440875 -20.4448
1.37091 0.990546 -17.8626
-0.859353 1.43899 -17.9002
-2.29823 -1.91263 0.44936
-2.21553 -2.21553 0.9398
2.04407 -2.21553 0.9398
2.21553 -2.21553 2.51909
2.21553 -2.21553 2.74268
2.21553 -2.21553 2.93313
2.21553 -2.21553 3.10891
2.21553 -2.21553 3.43791
2.21553 -2.21553 3.59896
-1.59692 -5.29793 3.37495
-1.44768 -4.80279 2.78004
-1.38184 -4.58439 2.51763
-0.88093 -2.92256 0.520957
-1.25747 -4.17177 2.02188
-2.21553 -0.481827 3.35399
-2.21553 -0.45956 3.14606
-0.8327 -2.76255 0.32871
-0.795102 -2.63782 0.178843
-2.21553 -2.21553 2.5019
-2.21553 -2.21553 2.70886
-2.21553 -2.21553 3.2493
-2.21553 2.21553 2.92903
-2.21553 2.21553 2.24346
-2.21553 2.21553 3.1061
2.21553 2.21553 3.43879
2.21553 2.21553 3.27586
2.21553 2.21553 3.10763
2.21553 2.21553 2.73856
2.21553 2.21553 2.52091
2.21553 2.21553 2.24031
2.21553 2.21553 1.75814
2.21553 2.05087 0.9398
2.15336 2.21553 0.9398
2.21553 -2.21553 1.64798
2.21553 -1.55892 0.979094
2.21553 -2.21553 2.20595
-1.31897 -4.37579 2.267
-1.51847 -5.03766 3.06223
-1.13434 -3.76326 1.53105
-1.07078 -3.55239 1.2777
-1.19628 -3.96875 1.77795
-2.21553 -0.40108 2.70831
-2.21553 -0.331483 2.22324
-2.21553 -0.288838 1.95232
-2.21553 -1.28624 3.57034
-0.767229 -2.54535 0.0677422
-2.21553 -2.21553 2.89664
-2.21553 2.21553 2.73691
-2.21553 2.21553 2.52089
-2.21553 2.21553 3.43831
3.0316 3.11534 3.51564
2.21553 2.21553 2.93054
2.21553 -1.95261 3.5931
3.75445 4.15964 3.45567
2.44019 -2.41514 0.959296
2.15482 -2.04191 0.9398
2.21553 -1.95859 3.42627
2.21553 -2.12961 3.59745
2.30821 -2.29455 3.7592
0.73465 -2.21553 3.56363
-4.97364 1.27886 3.7592
2.21553 2.01496 3.59417
2.46774 2.24372 3.7592
2.38 2.41463 0.910246
2.1533 -2.15526 0.9398
0.728407 -2.21553 3.36618
1.96712 -2.21553 3.42798
-2.21553 2.13887 3.43477
-0.838174 5.46762 3.37291
2.21553 2.00835 3.42739
1.93244 2.21553 3.42694
2.13775 2.21553 3.59865
2.28135 2.30898 3.7592
-0.0683935 2.20067 -8.53413
-2.21553 2.02719 3.7592
2.7508 2.09015 3.7592
-2.21553 -2.21553 1.81179
2.05176 -2.16304 0.9398
2.21553 -2.01002 1.65959
2.21553 -0.521117 1.67031
2.1582 1.71987 0.9398
2.21553 -0.52673 2.94068
2.21553 -0.54361 3.35794
2.21553 1.68638 3.5836
2.21553 1.70521 3.2274
2.21553 -1.45992 2.3491
2.21553 -1.99581 2.16099
2.21553 -1.97595 2.89946
2.14077 -2.21553 2.92775
2.13691 -2.21553 3.10348
2.13455 -2.21553 3.27147
2.21553 -1.96693 3.0825
2.21553 -1.96184 3.25677
2.21553 -2.13253 3.43518
2.5056 -2.17685 3.7592
2.14146 -2.21553 3.598
-2.21553 -2.21553 3.07551
1.35451 -2.21553 3.20454
-2.21553 -2.1299 3.7592
2.21121 -2.50567 3.7592
-1.10724 -3.05322 0.745828
-1.87156 -2.21553 1.76006
-1.65704 -2.21553 1.17583
-0.874208 -2.21553 1.99212
-1.73081 -2.21553 3.02264
-1.68562 -2.21553 3.20884
-1.62203 -2.21553 3.57596
-2.21553 -2.14579 2.2344
-2.21553 -0.368222 2.47341
-0.789454 2.21553 3.56476
2.15065 2.51778 3.7592
1.93766 2.21553 3.25768
1.95267 2.21553 3.08505
-2.21553 2.15507 2.23702
-2.21553 2.14422 3.26965
-2.21553 2.14716 3.59784
-0.814549 2.21553 1.70188
-0.94499 2.21553 1.32101
-4.50044 3.31058 3.43672
-5.09722 1.31027 3.06388
-4.61823 1.27243 2.52036
-4.16662 1.31452 2.03586
-0.735038 4.7185 2.50312
-0.758751 4.94968 2.7701
-0.718969 4.2788 2.00077
-0.720922 4.49694 2.24893
0.653452 4.34143 3.7592
-0.791431 5.19602 3.05593
4.63698 1.23307 2.52916
4.86425 1.24833 2.78654
2.21553 2.04339 2.18775
2.21553 -1.4099 2.80487
2.21553 2.02489 2.90021
2.21553 2.01839 3.08362
2.21553 2.01748 3.2586
2.12308 2.21553 3.43625
2.12403 2.21553 2.92369
2.1345 2.21553 2.51296
2.21553 2.14688 3.59774
2.21553 2.13919 3.4352
2.12533 2.21553 3.27157
2.21553 2.14558 3.10006
2.21553 2.15099 2.72646
2.21553 2.04134 2.47589
2.21553 2.15171 2.22083
3.72565 1.46208 1.61374
3.9704 1.32946 1.82634
3.39292 1.93912 1.50537
2.13621 2.21553 1.76949
2.00218 2.21553 1.78705
2.21553 2.1426 1.74972
2.15849 2.06499 0.9398
2.15926 2.15211 0.9398
0.93502 2.21553 2.01537
-2.21553 2.21553 1.76686
2.06367 2.14952 0.9398
2.21553 2.044 1.7415
2.21553 1.79779 2.12845
-0.53031 -2.16372 -3.59773
0.989364 2.0943 -13.8685
-2.21553 -2.21553 2.24435
-2.21553 -2.15344 0.9398
2.14414 -2.21553 1.64355
2.21553 -2.14355 1.65092
2.21553 -0.510063 2.4879
2.13343 -2.21553 2.50538
2.15294 -2.21553 2.19826
2.21553 -2.14366 2.1937
2.21553 -2.12882 2.50007
2.21553 -2.12961 2.72841
2.21553 -1.97695 2.6981
2.21553 -2.1466 2.92649
2.13967 -2.21553 2.73462
2.21553 -2.13155 3.27033
2.1257 -2.21553 3.43537
1.40284 -2.21553 2.81185
0.710156 -2.21553 2.51238
1.44013 -2.21553 2.3549
-1.3285 -5.07184 3.7592
-1.84387 -2.21553 2.40705
1.98285 -2.21553 2.70552
-0.940527 -2.21553 2.73726
-2.21553 -1.98816 2.46397
-2.21553 -2.14279 2.49352
-2.21553 -2.13007 2.89171
-2.21553 -2.13587 3.07275
-1.80536 2.21553 2.44729
-0.758845 2.21553 2.74452
-2.21553 2.15813 2.92309
-2.21553 2.16031 2.73056
-1.82082 2.21553 2.17303
-4.851 1.28231 2.78177
-4.39248 1.28282 2.27373
-3.93161 1.38531 1.80505
-3.66958 1.52686 1.58197
-0.760324 3.8363 1.50877
-0.812457 3.60084 1.25621
-0.731464 4.0605 1.75593
4.16177 1.22163 3.7592
2.21553 2.02094 2.69917
1.96015 2.21553 2.70537
2.132 2.21553 2.73224
1.27454 2.21553 2.33815
2.21553 2.14031 3.26969
2.21553 2.14762 2.92144
2.21553 2.14842 2.50323
2.21553 -1.98116 2.46511
2.21553 -2.13614 3.10214
-2.21553 2.14668 3.09948
2.13032 2.21553 3.1027
2.14315 2.21553 2.23684
-2.21553 2.02146 3.59444
0.58207 -2.33392 0.711189
0.633766 -2.32292 0.909691
-2.21553 -2.14563 1.80691
2.36482 -2.09356 1.67293
-1.10401 3.02506 0.714362
2.29178 -0.740639 0.842467
2.96942 -0.0425517 2.17116
2.50734 -2.17557 3.60028
2.31194 -2.2991 3.60101
-2.21553 -1.94804 3.05726
-2.21553 -1.94754 3.23703
1.38387 -1.36175 3.33393
-0.239198 -2.50014 1.71265
-1.33921 -2.45622 1.24499
-0.251077 -2.82719 2.16891
-0.160228 3.03115 3.21484
-0.169755 3.18106 3.57777
-1.26893 2.44217 1.20607
-4.40041 2.09671 3.53811
-4.03396 1.67694 3.33111
-3.70699 1.31915 2.89072
-1.75168 4.15617 3.12755
-1.81751 4.38617 3.31745
-0.218939 3.33181 3.0299
1.27898 3.62345 3.56235
1.26717 3.53563 3.36627
-2.21553 2.02996 3.0859
-2.21553 2.04017 2.90518
-2.21553 2.05447 2.49151
3.80479 1.53955 3.55893
2.64201 -0.0467131 2.07936
1.17548 2.70849 2.05719
2.46796 2.24312 3.60272
2.28566 2.32125 3.60214
2.28564 2.31939 3.44465
3.72007 1.87803 2.74904
2.26001 2.28017 1.77508
-2.21553 2.1674 1.77509
-2.21553 2.07357 1.78627
2.54713 -0.0575257 1.72023
3.33053 -0.0678704 3.57326
3.9435 -1.45016 3.33709
2.15826 -0.880436 0.608684
2.0084 -0.902209 0.41015
0.92561 -2.17393 0.846631
1.10804 -2.70985 2.04398
2.28056 -2.27996 1.6712
2.38905 -2.10537 2.21298
2.73539 -0.0445614 2.36066
2.95209 -0.0556298 2.81128
2.84022 -0.0491747 2.59817
3.06553 -0.059017 3.00926
-2.21553 2.04958 2.71055
2.44254 -2.13443 2.75104
2.29144 -2.27876 2.2418
2.46397 -2.1491 2.94355
2.48987 -2.16728 3.28116
2.47601 -2.16025 3.11608
2.30764 -2.29788 3.44235
3.26501 -0.0653003 3.38706
2.50822 -2.17521 3.44171
1.12409 -2.83284 2.32215
-2.21553 -2.13168 3.58963
-2.21553 -2.13041 3.41947
-2.21553 -2.00008 2.20265
1.15337 -3.11671 2.77362
-2.21553 -2.134 2.70166
-2.21553 -2.01739 1.79078
1.36075 -3.27202 2.36264
-2.21553 -1.94142 3.41258
-2.21553 -1.96407 2.87314
-2.21553 -1.97538 2.67825
1.34798 -1.29347 3.14275
-0.31458 -3.18406 3.57328
-0.311942 -3.05673 2.62778
-0.351543 -3.17879 2.81125
-0.276573 -2.93935 2.42532
-2.21553 -2.13382 3.24747
-0.284692 -3.03383 3.20335
-0.303619 -3.12379 3.38803
-0.239002 -2.64857 2.40136
-0.211596 -2.72379 1.75971
-0.412381 -3.32352 2.98888
-4.06114 -0.362791 3.5223
-1.34965 -2.71109 1.1894
-0.248162 -2.73622 2.62559
-0.164804 2.729 2.63982
-0.161144 2.82685 2.84174
-0.158037 2.92689 3.03176
-0.165009 3.11652 3.39646
-0.192579 3.19555 2.84293
-0.176968 3.07311 2.64518
-0.181941 2.72621 1.74572
-0.165029 2.84594 2.16484
-0.182988 2.56031 2.14731
-0.196944 2.48873 1.76472
-1.22618 2.61026 0.851182
-3.85878 1.47214 3.11007
-2.21553 2.01614 3.42812
-2.21553 2.02574 3.25959
0.73147 0.584919 3.54849
3.70952 1.51021 3.3593
1.21968 3.11357 2.77069
1.20291 2.96794 2.5554
1.2371 3.26285 2.97342
1.25458 3.40528 3.17074
3.92273 1.95499 2.92791
2.45618 2.23171 3.44461
2.47347 2.57448 3.46673
2.45809 2.56357 3.31932
2.28094 2.31859 3.28379
2.43942 2.22512 3.11964
2.38889 2.19047 2.53168
2.27445 2.31275 2.94664
2.27332 2.31173 2.76127
2.38188 2.16631 2.24644
3.53012 1.79979 2.55504
3.35648 1.72199 2.33054
2.35472 2.14275 1.76543
-2.21553 2.05858 2.22058
-2.21553 2.15848 0.9398
1.18859 2.30381 0.57821
3.17144 -0.0614785 3.19998
2.41332 -2.11922 2.52355
2.28177 -2.28131 2.76009
2.29597 -2.282 2.54721
2.30212 -2.29681 3.11966
2.29682 -2.29228 2.94853
1.16518 -3.26503 2.97433
-0.267851 -2.93325 3.01761
-0.236988 -2.57235 2.12428
-3.69334 -0.313969 2.83553
-3.81807 -0.333358 3.05675
-3.94262 -0.350222 3.28539
-0.255374 -2.83116 2.82756
-0.169336 2.95512 2.42757
-0.171397 2.64095 2.41634
3.5741 1.46283 3.15734
-2.21553 2.1537 2.51148
2.45107 2.22879 3.28447
2.42221 2.21755 2.94345
2.41044 2.20682 2.75324
2.25784 2.29578 2.54069
2.30894 -2.30237 3.28434
2.26761 2.30774 3.11726
2.25757 2.29275 2.26664

CELLS 0 0

CELL_TYPES 0

CELL_DATA 0
SCALARS CellEntityIds int 1
LOOKUP_TABLE default
