# vtk DataFile Version 2.0 
Created by AlgoHex
ASCII
DATASET UNSTRUCTURED_GRID
POINTS 167 double
0.389035 -0.191005 -0.0593055
-0.0722873 -0.162801 -0.184556
0.314406 -0.0589642 0.19111
0.5 -0.103922 -0.166477
-5.22485e-17 2.44929e-17 0.2
0.5 4.89859e-17 0.2
0.427862 4.89859e-17 0.2
-0.171808 0.367994 -0.102381
-0.136167 0.41075 0.146488
0.377757 -0.0912484 -0.175748
0.399519 -0.0952636 -0.174022
0.421282 -0.0992787 -0.172296
0.162843 4.89859e-17 0.2
-0.019494 0.271592 0.196957
0.296549 4.89859e-17 0.2
0.333075 4.89859e-17 0.2
0.367446 4.89859e-17 0.2
0.397654 4.89859e-17 0.2
0.452005 4.89859e-17 0.2
0.476003 4.89859e-17 0.2
0.341386 -0.0811269 -0.182547
-0.188811 0.5 -0.0562516
-0.193096 0.5 -0.0347101
-0.197381 0.5 -0.0131686
-0.198305 0.5 0.0085229
-0.193943 0.5 0.0304502
-0.197448 0.197448 0.0134996
-0.192063 0.192063 0.0419799
-0.186678 0.186678 0.0704602
-0.0202082 0.187929 -0.197944
-0.0358385 0.174639 0.0903916
-0.00822885 0.179811 0.080953
0.0193808 0.184982 0.0715144
0.0469904 0.190154 0.0620758
-0.0686705 0.206045 -0.184386
0.0219033 0.171697 -0.197305
-0.182962 -0.182962 -0.0783719
-0.190641 -0.190641 -0.0495024
-0.195593 -0.195593 -0.0233115
-0.182016 -0.182016 0.0799385
-0.166668 -0.166668 0.105356
-0.0872323 0.222621 0.176974
-0.0583827 0.229348 0.191082
-0.0389881 0.257824 0.193915
0.458202 -0.102257 -0.17031
0.472135 -0.102812 -0.169033
0.486067 -0.103367 -0.167755
0.0597088 0.167432 -0.189491
0.5 -0.123301 0.00822392
0.293534 -0.0519106 -0.189673
0.5 -0.10972 0.0178838
0.5 -0.0960387 0.0279513
0.5 -0.082034 0.039347
-0.199465 -0.199465 0.00282893
-0.1946 -0.1946 0.0285606
-0.189735 -0.189735 0.0542923
0.5 -0.0665859 0.0559226
0.5 -0.0490619 0.0799478
0.5 0.0626527 0.0510864
0.5 -0.0526274 -0.107892
0.331205 0.187312 -0.0688482
0.362899 0.184624 -0.0726826
0.40475 0.102365 -0.170039
0.233897 -0.19221 -0.0517545
-0.0153426 0.5 0.0335316
0.323878 -0.194106 0.0365443
0.357969 -0.19556 0.0261662
0.453461 0.0965815 -0.174651
0.444851 0.122597 -0.15607
0.430837 0.14594 -0.134776
0.384606 -0.174705 0.0926555
0.385763 -0.165118 0.108215
0.386921 -0.155531 0.123774
0.397409 0.197853 -0.021161
-0.0288125 0.5 -0.11737
-0.345813 0.189656 -0.0573589
0.226858 -0.193061 0.0419186
0.265358 0.195384 -0.0350919
0.0625059 0.5 0.0372839
0.0582512 0.5 0.0715317
-0.0665235 0.5 -0.0138687
-0.0232357 0.5 -0.0757677
-0.215693 0.193763 0.036376
-0.210308 0.188378 0.0648563
-0.233938 0.190078 0.0592524
-0.257569 0.191777 0.0536485
-0.0651876 0.5 0.020779
-0.0597077 0.5 0.0398132
-0.0543119 0.5 -0.0482117
-0.0773968 0.152439 0.182997
0.41368 0.146678 -0.13365
0.447994 0.145202 -0.135901
0.442131 0.162432 -0.112335
0.465152 0.144465 -0.137026
0.44527 -0.176686 0.0881769
0.482309 0.143727 -0.138152
-0.0654919 0.5 0.00202985
0.384463 0.104874 -0.167296
0.326133 -0.198652 0.0094402
0.321387 -0.177877 0.0869487
0.355325 -0.16152 0.112105
-0.0774306 0.151473 0.182983
0.0194099 0.5 0.0619908
0.229536 -0.136711 0.142914
0.351853 0.195094 0.0301418
0.333476 -0.108065 0.166414
0.366174 -0.108537 0.16459
-0.0292799 -0.5 -0.0653266
-0.0226235 0.5 -0.0361247
0.475122 -0.115059 0.160898
-0.00443747 0.5 -0.114506
0.000909529 0.5 -0.0719297
0.0159224 0.5 -0.0151668
0.0194118 0.5 0.00557585
0.0230965 0.5 0.0258
-0.015359 0.5 0.0634901
-0.0220809 0.5 -0.00566315
-0.0187659 0.5 0.013851
-0.0530927 0.5 -0.0904004
0.0216086 0.5 -0.115291
0.426953 0.12389 -0.155152
0.415225 -0.18931 0.0627603
0.356477 -0.151948 0.127647
0.416828 -0.160813 0.118071
0.415092 0.196756 -0.0254839
0.465096 0.0955434 -0.174528
0.476731 0.0945052 -0.174404
0.445424 -0.190076 0.0607795
0.472717 -0.191783 0.0481663
0.253063 0.182616 -0.0784416
0.266227 -0.199183 -0.00472362
0.263537 -0.196244 0.0196325
0.305476 0.176008 -0.0887885
0.393646 -0.111914 0.163202
0.34914 0.198774 -0.00801804
0.366053 0.198573 -0.0125202
0.416187 -0.168718 0.103694
0.421132 -0.115288 0.161797
0.445194 -0.16999 0.101876
0.479254 0.160053 -0.114876
0.479254 0.175395 -0.0919147
0.290776 -0.187633 0.0663793
0.385615 0.152026 -0.12744
0.0695447 0.5 0.0109045
0.44516 -0.160619 0.117499
0.47258 -0.157743 0.119398
0.272621 0.151574 -0.127146
0.257807 0.17072 -0.100753
0.317548 0.195547 0.0279378
0.323042 -0.157846 0.121311
0.398834 0.167884 -0.106105
0.381731 0.198213 -0.0168406
0.467268 0.194522 -0.0317592
0.438261 0.195205 -0.029477
0.449496 -0.117734 0.159384
0.355241 0.157981 -0.119724
0.287566 0.19856 -0.00535017
0.301456 0.187941 -0.065297
0.245182 -0.17173 0.0974735
0.29512 -0.197092 0.0155146
0.319058 0.198637 -0.00636271
0.288447 -0.164253 0.112608
0.488365 0.0934671 -0.174281
0.0147143 0.5 -0.0424388
0.0360468 0.5 -0.0706319
0.0548466 0.5 -0.042762
0.0609012 0.5 -0.0288794

CELLS 0 0

CELL_TYPES 0

CELL_DATA 0
SCALARS CellEntityIds int 1
LOOKUP_TABLE default
