# vtk DataFile Version 2.0 
Created by AlgoHex
ASCII
DATASET UNSTRUCTURED_GRID
POINTS 2966 double
0 0 5
1 3.73205 5
1 -3.73205 5
0.193515 -0.386192 2.42736
0.34952 0.346718 0.288892
0.666667 1.36619e-15 0
0.624671 1.54315 5
0.639714 1.75099 5
0.905573 1.9418 5
1 2.86019 3.49314
1 2.82142 3.42613
1 2.78265 3.35912
1 2.74388 3.29211
1 2.70511 3.2251
1 2.66634 3.15809
1 2.62757 3.09108
1 2.5888 3.02407
1 -2.85873 3.4906
1 -2.82122 3.42577
1 -2.78371 3.36094
1 -2.7462 3.29611
1 -2.70869 3.23128
1 -2.67118 3.16645
1 -2.63367 3.10162
1 -2.59616 3.03679
1 -0.817419 5
1 -0.700846 5
1 -0.584273 5
1 -0.4677 5
1 -0.351127 5
1 1.97118 1.95662
1 1.93438 1.89302
1 1.89758 1.82942
1 1.86079 1.76582
1 1.82399 1.70222
1 1.78719 1.63862
1 1.75039 1.57502
1 1.71359 1.51142
0.349564 0.337849 0.240743
0.349607 0.328979 0.192594
0.349651 0.32011 0.144446
0.349694 0.31124 0.0962972
1 -0.0286565 0.0644447
1 3.13779 3.97292
1 3.09812 3.90436
1 3.05845 3.83579
1 3.01878 3.76723
1 2.97911 3.69867
1 2.93944 3.6301
1 2.89977 3.56154
0.997646 3.15383 5
0.874448 2.94163 5
0.75125 2.72942 5
0 0 2.18932
0 0 2.11297
0 0 2.03661
0 0 1.96026
0 0 1.8839
0 0 1.80755
0 0 1.73119
1 1.40258 0.973892
1 1.35351 0.889078
1 1.30444 0.804264
1 1.25537 0.71945
1 1.20629 0.634636
1 1.15722 0.549822
1 -1.40626 5
1 -1.25588 5
1 -1.10549 5
1 -1.98455 1.97972
1 -1.94699 1.91481
1 -1.90944 1.8499
1 -1.87188 1.78499
1 -1.83433 1.72009
1 -1.79677 1.65518
1 -1.75921 1.59027
1 -1.72166 1.52536
0.0026554 0.00364135 1.65979
0.0197982 0.0271493 1.6154
0.0369411 0.0506573 1.57102
0.0540839 0.0741653 1.52663
0.0712267 0.0976733 1.48224
0.0883696 0.121181 1.43786
0.105512 0.144689 1.39347
0.122655 0.168197 1.34908
0.139798 0.191705 1.3047
0.156941 0.215213 1.26031
0.174084 0.238721 1.21592
0.829923 -2.86493 5
0.960728 -3.09024 5
1 -2.27154 2.47574
1 -2.23573 2.41385
1 -2.19993 2.35197
1 -2.16412 2.29008
1 -2.12831 2.2282
1 -2.09251 2.16632
1 -2.0567 2.10443
1 -2.0209 2.04255
1 2.26151 2.4584
1 2.22526 2.39576
1 2.18902 2.33312
1 2.15278 2.27048
1 2.11653 2.20784
1 2.08029 2.1452
1 2.04405 2.08256
1 2.0078 2.01992
0 0 3.86928
0 0 3.81976
0 0 3.77024
0 0 3.72071
0 0 3.67119
0 0 3.62166
0 0 3.57214
0 0 3.52262
0 0 3.47309
0 0 3.42357
0 0 3.37404
0 0 4.9426
0 0 4.88521
0 0 4.82781
0 0 4.77041
0 0 4.71302
0 0 4.65562
0 0 4.59822
0 0 4.54083
0 0 4.48343
1 -1.68238 1.45748
1 -1.642 1.38768
1 -1.60161 1.31788
1 -1.56123 1.24808
1 -1.52084 1.17828
1 -1.48046 1.10848
1 -1.44007 1.03868
0.86346 -3.22248 5
0.874838 -3.26494 5
0.886217 -3.30741 5
0.897595 -3.34987 5
0.908973 -3.39233 5
0.920352 -3.4348 5
0.93173 -3.47726 5
0.943108 -3.51973 5
0.954487 -3.56219 5
0.965865 -3.60466 5
0.977243 -3.64712 5
0.988622 -3.68959 5
1 -3.68098 4.91173
1 -3.6299 4.82345
1 -3.57883 4.73518
1 -3.52776 4.64691
1 -3.47668 4.55864
1 -0.239594 5
1 -0.134208 5
1 0.0765655 5
1 0.181952 5
1 3.68034 4.91063
1 3.62863 4.82126
1 3.57692 4.73189
1 3.52522 4.64252
1 3.47351 4.55315
0.988864 3.69049 5
0.977728 3.64893 5
0.966592 3.60737 5
0.955456 3.56581 5
0.94432 3.52425 5
0.933184 3.48269 5
0.922048 3.44113 5
0.910912 3.39957 5
0.899776 3.35801 5
0.88864 3.31645 5
0.877504 3.27489 5
0.866368 3.23333 5
1 -1.39538 0.961442
1 -1.34533 0.874946
1 -1.29529 0.788449
1 -1.24524 0.701953
1 -1.1952 0.615457
1 -1.14515 0.52896
1 0.287374 5
1 0.407438 5
0.759813 -1.83718 5
0.500796 -1.65129 5
0.871035 -2.04659 5
1 0.527501 5
1 0.647565 5
1 0.767628 5
1 0.894298 5
0.822026 2.39639 5
1 -2.55931 2.9731
1 -2.52333 2.91092
1 -2.48735 2.84873
1 -2.45137 2.78655
1 -2.41539 2.72436
1 -2.37941 2.66217
1 -2.34343 2.59999
1 -2.30745 2.5378
1 3.42325 4.46628
1 3.37511 4.38309
1 3.32698 4.2999
1 3.27885 4.21671
1 3.23072 4.13352
1 3.18258 4.05033
1 -3.42698 4.47274
1 -3.37999 4.39153
1 -3.33301 4.31032
1 -3.28602 4.22911
1 -3.23903 4.1479
1 -3.19204 4.06669
1 1.04435 5
1 1.19441 5
1 1.34446 5
1 2.55163 2.95984
1 2.51536 2.89715
1 2.4791 2.83447
1 2.44283 2.77179
1 2.40656 2.70911
1 2.37029 2.64642
1 2.33403 2.58374
1 2.29776 2.52106
1 -3.1461 3.98729
1 -3.10498 3.9162
1 -3.06385 3.84512
1 -3.02272 3.77403
1 -2.98159 3.70295
1 -2.94046 3.63187
1 -2.89933 3.56078
1 1.67539 1.4454
1 1.63688 1.37884
1 1.59838 1.31229
1 1.55987 1.24573
1 1.52136 1.17918
1 1.48285 1.11262
1 1.44434 1.04607
1 -0.955096 5
1 -1.76623 4.56813
1 0.37526 4.09165
1 0.492075 4.08657
1 0.374514 4.0339
1 0.491329 4.02882
1 0.608144 4.02375
1 0.373763 3.97615
1 0.377271 4.14897
1 0.496551 4.43308
1 0.495805 4.37533
1 0.495059 4.31758
1 0.494313 4.25983
1 0.611128 4.25475
1 0.380002 4.20604
1 0.493567 4.20208
1 0.610382 4.197
1 0.492821 4.14433
1 0.609636 4.13925
1 0.60889 4.0815
1 0.725705 4.07642
1 0.724959 4.01867
1 1.31299 4.4003
1 1.30515 4.33877
1 1.14723 4.29073
1 1.30102 4.27849
1 1.14488 4.23105
1 1.29867 4.21881
1 1.14253 4.17137
1 1.29633 4.15913
1 1.14018 4.11169
1 1.29398 4.09945
1 0.984034 4.06425
1 1.13783 4.05201
1 1.29138 4.03942
1 0.981489 4.00429
1 1.13409 3.99035
1 1.28669 3.97642
1 1.28201 3.91342
1 1.45089 4.14716
1 1.44777 4.08722
1 1.44398 4.02548
1 1.43929 3.96248
1 0.0730055 4.32239
1 0.174427 4.26458
1 0.171696 4.20751
1 0.275849 4.20677
1 0.273118 4.1497
1 0.270387 4.09263
1 0.49781 4.49065
1 0.0784674 4.43653
1 0.18262 4.43579
1 0.286773 4.43506
1 0.390926 4.43432
1 0.0757365 4.37946
1 0.179889 4.37872
1 0.284042 4.37798
1 0.388195 4.37725
1 0.177158 4.32165
1 0.281311 4.32091
1 0.385464 4.32018
1 0.27858 4.26384
1 0.382733 4.26311
0.48898 -1.42389 3.57516
0.496006 -1.42684 3.50968
1 -1.18402 3.55639
1 -1.35317 3.4629
0.448742 -1.2698 3.4751
1 -1.36 3.39618
0.456743 -1.27713 3.4093
1 -1.36684 3.32947
0.465097 -1.28605 3.34338
1 0.56503 1.15476
1 0.625857 1.0506
1 0.516802 1.01428
1 0.686684 0.946448
1 0.577629 0.910122
1 -0.344861 4.4334
1 -0.238772 4.43459
1 -0.132683 4.43579
1 -0.34022 4.37642
1 -0.234131 4.37762
1 -0.128042 4.37882
1 -0.335579 4.31945
1 -0.22949 4.32065
1 -0.330938 4.26248
1 -0.561679 4.48798
1 -0.45559 4.48917
1 -0.557038 4.431
1 -0.450949 4.4322
1 -0.446308 4.37523
1 -0.441667 4.31825
1 -0.348615 4.60348
1 -0.564432 4.54479
1 -0.456691 4.54585
1 -0.34895 4.54691
1 -0.241209 4.54797
1 -0.349284 4.49035
1 -0.241543 4.49141
1 -0.133802 4.49247
0 0 4.42649
1 0.573232 3.17735
1 0.0384944 2.28614
0 0 2.81696
1 0.0493904 2.20852
1 0.176942 2.05057
0.193414 -0.350715 2.06676
1 -0.118545 1.90339
0.777573 -2.86918 4.92408
1 -3.08496 4.92628
0.786632 -2.87022 4.84816
0.79569 -2.87126 4.77224
0.804749 -2.8723 4.69632
0.847974 -3.09915 4.84816
1 0.461396 2.78628
1 0.458375 2.70503
1 0.564533 2.70915
1 0.456417 2.62736
1 0.3483 2.54557
1 0.456073 2.55512
1 0.347956 2.47333
1 0.347612 2.40109
1 0.462814 2.85449
1 0.25506 2.93852
1 0.359532 2.92968
1 0.252422 2.86039
1 0.358343 2.86334
1 0.249401 2.77914
1 0.355398 2.78271
1 0.246379 2.69788
1 0.352377 2.70146
1 0.349355 2.6202
1 0.540301 1.8068
1 0.543075 1.74745
1 0.4342 1.67853
1 0.341124 1.61423
1 0.441962 1.62064
1 0.0711825 2.05326
1 0.0820785 1.97563
1 0.187838 1.97294
1 0.293012 1.97546
1 0.0929745 1.89801
1 0.198363 1.89904
1 0.302313 1.90369
1 0.418228 1.91451
1 0.534753 1.9255
1 0.207358 1.84045
1 0.310075 1.8458
1 0.421002 1.85516
1 0.537527 1.86615
1 0.216354 1.78186
1 0.317837 1.78791
1 0.423776 1.79581
1 0.224761 1.72361
1 0.3256 1.73002
1 0.42655 1.73646
1 0.232523 1.66571
1 0.333362 1.67212
1 2.04964 3.5874
1 1.65328 3.60325
1 1.43639 3.5749
1 1.65518 3.53554
1 1.43828 3.50719
1 1.65707 3.46783
1 1.65897 3.40013
0.652006 1.82496 3.28269
1 1.58154 2.27529
1 1.61305 2.41789
0.481334 1.20301 2.88755
0.492403 1.21081 2.81397
1 1.34812 2.77743
0.503473 1.21861 2.7404
1 1.37357 2.69919
0.514543 1.22641 2.66682
1 1.39902 2.62095
0.525612 1.23421 2.59324
1 1.17003 2.53637
1 1.19548 2.45813
1 1.22868 2.37606
1 0.175417 3.3871
1 0.17206 3.324
1 0.273963 3.31899
1 0.168703 3.2609
1 0.270606 3.25589
1 0.372508 3.25088
1 0.47441 3.24587
1 0.267249 3.19279
1 0.369151 3.18778
1 0.471053 3.18277
1 0.263892 3.12968
1 0.365794 3.12467
1 0.467696 3.11966
1 0.260535 3.06658
1 0.362437 3.06157
1 0.257178 3.00348
1 -2.0601 4.5532
1 -2.05478 4.48513
1 -2.04945 4.41706
1 0.0662136 3.13465
1 0.160324 3.0702
0.596918 1.93669 4.08146
1 1.64768 4.06605
1 1.8752 4.03709
1 1.64621 3.9981
1 1.87373 3.96914
1 1.87226 3.90119
1 1.87079 3.83324
1 1.86932 3.7653
0 0 3.32636
0 0 3.28718
1 -0.129655 3.07226
0 0 3.24799
1 0.0636643 3.07088
1 -0.132204 3.00849
0 0 3.20881
1 0.0611149 3.00712
1 0.157774 3.00643
1 1.50901 4.93844
1 1.71786 4.93844
0.539599 1.99521 4.93552
1 1.7092 4.87688
0.542138 1.98609 4.87105
1 1.70053 4.81531
1 1.69186 4.75375
1 1.6832 4.69219
0.497615 1.75195 4.61923
0.717782 2.52039 4.56903
0.730641 2.53481 4.49469
0.743501 2.54924 4.42035
0.75636 2.56366 4.34601
1 -1.74976 4.38198
1 -1.75462 4.31596
1 -2.04063 4.21428
1 -1.75949 4.24994
1 -2.0455 4.14826
1 -1.76435 4.18392
1 -2.05036 4.08223
1 -1.76921 4.11789
1 -1.76189 4.50753
1 -1.57415 4.51543
1 -1.753 4.4456
1 -1.56526 4.4535
0.430503 -1.46426 4.44413
1 -1.55637 4.39156
0.483825 -1.10181 2.51614
0.494522 -1.11027 2.4452
0.505216 -1.11872 2.37426
1 -1.01687 2.2999
0.461622 -0.985678 2.2545
1 -0.876584 2.1837
0.462432 -1.08489 2.65802
0.473129 -1.09335 2.58708
0.432499 -0.981725 2.55356
0.443195 -0.990184 2.48262
0.391869 -0.870102 2.52004
0.451513 -0.99344 2.40902
0.39781 -0.86816 2.44378
0.456568 -0.989559 2.33176
0.402864 -0.864279 2.36652
0.407919 -0.860398 2.28926
0.412974 -0.856518 2.21201
0.418029 -0.852637 2.13475
0.664743 2.2503 4.31769
0.846769 2.51385 3.60706
0.830318 2.4815 3.61983
0.857216 2.50174 3.53262
0.840765 2.4694 3.54539
0.824315 2.43705 3.55815
0.884115 2.52198 3.44542
0.867664 2.48964 3.45818
0.851213 2.45729 3.47095
0.911013 2.54223 3.35821
0.894563 2.50988 3.37098
0.878112 2.47753 3.38374
0.921461 2.53012 3.28377
0.90501 2.49777 3.29654
0.94836 2.55036 3.19657
0.931909 2.51801 3.20933
0.834884 2.5246 3.68278
0.987299 2.8314 3.50257
0.974598 2.8026 3.512
0.961896 2.7738 3.52144
0.949195 2.745 3.53087
0.936494 2.71621 3.5403
0.923793 2.68741 3.54974
0.911092 2.65861 3.55917
0.89839 2.62981 3.5686
[...]
CELL_DATA 0
SCALARS CellEntityIds int 1
LOOKUP_TABLE default
