# vtk DataFile Version 2.0 
Created by AlgoHex
ASCII
DATASET UNSTRUCTURED_GRID
POINTS 4441 double
0 0 0
0 0 5
1 -0.8391 0
1 3.73205 5
1 -3.73205 5
1 1.13837 0.517241
1 -1.23813 0.689655
1 -1.04613 0.357815
0.666742 0.640719 0.206584
0.0605318 0.1304 2.93581
0 0 1.32784
0 0 2.17129
0 0 0.918981
0.0636881 0.123624 2.53117
0 0 0.987779
0 0 1.05706
0 0 1.12645
0 0 1.19583
1 3.46154 4.53246
1 3.51216 4.61996
0 0 4.82355
0 0 4.88236
0 0 4.94118
0.905728 3.06871 5
1 1.43158 5
0.440863 1.64532 5
0.957243 -3.57248 5
0.965794 -3.60439 5
0.974346 -3.63631 5
0.982897 -3.66822 5
0.991449 -3.70014 5
1 -3.67677 4.90445
1 -0.592021 0
1 -0.512168 0
0.895149 -0.375052 0
0.914355 -0.357587 0
0.93356 -0.340121 0
0.952766 -0.322655 0
0.971971 -0.30519 0
0.991177 -0.287724 0
1 0.84896 5
1 0.956 5
1 -2.34098 2.59576
1 -2.37506 2.65466
1 -2.40915 2.71357
1 -1.83853 1.72735
1 -1.87186 1.78497
1 -1.9052 1.84258
1 -1.93855 1.90022
1 -1.97211 1.95822
1 -2.00567 2.01622
0 0 0.255878
1 -2.28492 5
1 2.64945 3.12889
1 2.68538 3.19099
1 2.72131 3.2531
1 -2.69245 5
0.210045 0.234103 0.580438
0.195955 0.222442 0.643905
0.158894 0.183259 0.708961
0.134108 0.157528 0.775414
0 0 0.850182
0.824216 0.91472 0.449098
1 1.05423 0.371813
1 1.08227 0.420289
1 1.11032 0.468765
1 0.452541 5
1 0.54616 5
0 0 4.41398
0 0 4.47245
0 0 4.53091
0 0 4.58937
1 0.274574 5
1 0.361388 5
1 -0.868234 0.0503545
1 -0.897369 0.100709
1 -0.926504 0.151064
1 -0.981069 0.245371
1 -2.8855 5
1 -0.0803115 0
1 -0.0380242 0
1 0.00426306 0
1 0.0465503 0
0.954277 3.28831 5
0.882143 3.20802 5
1 2.27078 5
0.315262 0.337943 0.447603
0.260303 0.283487 0.513779
1 -1.75567 5
1 -1.65971 5
0.478732 1.78665 5
1 -1.11571 5
1 -1.03014 5
1 -0.94532 5
1 -0.861476 5
1 -1.25768 0.72345
1 -1.27723 0.757244
1 -1.29679 0.791038
1 -1.31634 0.824833
1 -1.33589 0.858627
1 -0.260445 0
1 -0.224826 0
1 -0.189207 0
1 -0.153587 0
1 -0.117968 0
0 0 0.0634613
0 0 0.126923
0 0 0.190384
1 -1.74017 1.55735
1 -1.77294 1.614
1 -1.80572 1.67065
1 -1.29131 5
1 -1.20222 5
0.130168 -0.109224 0
0.0867788 -0.072816 0
0.0433894 -0.036408 0
1 -3.27437 4.20898
1 -3.31871 4.2856
1 -1.08112 0.418287
0.970946 -1.10268 0.508085
1 -1.95545 5
1 -1.85529 5
1 -1.10518 0.543474
0 0 2.23096
0 0 2.28758
0 0 2.3442
0.000457396 0.000887845 2.40094
0.0320728 0.062256 2.46606
0 0 3.60441
0 0 3.66189
0 0 3.71938
0 0 3.77686
1 1.95631 1.93092
1 1.99019 1.98947
1 2.02406 2.04801
1 -2.0392 2.07419
1 -2.07254 2.13181
1 -2.10588 2.18942
0 0 4.64787
0 0 4.70639
0 0 4.76491
1 -2.23991 2.42108
1 -2.27358 2.47926
1 -2.30724 2.53745
1 1.55069 1.22987
1 1.5844 1.28812
1 1.6181 1.34637
1 -1.38055 5
1 2.54285 2.94465
1 2.57832 3.00596
1 2.61379 3.06726
1 1.25519 0.719139
1 1.28687 0.773905
1 1.31856 0.828672
0.691885 -2.58215 5
1 -2.40672 5
0.0321242 -0.119889 5
0.0160621 -0.0599445 5
0 0 1.87323
0 0 1.92844
0 0 1.98365
0 0 2.04459
0 0 2.10794
1 1.65187 1.40473
1 1.68571 1.46324
1 1.71956 1.52174
1 2.86951 3.50923
1 2.90748 3.57487
0.565445 2.11027 5
1 -1.3634 0.906172
1 -1.39181 0.955276
1 -1.42022 1.00438
1 -3.46094 4.53142
1 -3.51147 4.61876
1 2.36627 2.63946
1 2.40143 2.70024
1 2.75784 3.31624
1 2.79473 3.37999
1 2.83161 3.44373
1 1.06796 5
1 1.18175 5
1 1.44996 1.05578
1 1.48352 1.11378
1 1.51708 1.17178
0.519577 1.93909 5
1 1.75342 1.58026
1 1.78729 1.63879
1 1.82116 1.69733
1 -2.76127 3.32215
1 -2.79789 3.38545
0 0 1.44619
0 0 1.54458
0 0 1.62808
0 0 1.69239
0 0 1.75669
0 0 1.81803
1 1.35076 0.884322
1 1.38376 0.941356
1 1.41676 0.998389
1 -3.36489 4.36541
1 -3.41194 4.44675
1 2.16 2.28296
1 2.19391 2.34157
1 2.22782 2.40018
0.062396 0.128746 2.76684
0.0620232 0.129077 2.80063
0.0616503 0.129408 2.83443
0.0612775 0.129738 2.86822
0.0609046 0.130069 2.90202
1 -2.44335 2.7727
1 -2.47797 2.83253
1 -2.51259 2.89236
1 -2.16823 5
1 -2.06123 5
1 -2.94831 3.64543
1 -2.98678 3.71192
1 -3.02525 3.77841
1 -3.56524 4.71169
1 -3.62132 4.80863
1 1.3045 5
1 1.85497 1.75576
1 1.88873 1.81411
1 1.92248 1.87246
0 0 4.2401
0 0 4.29802
0 0 4.35594
1 -2.65369 3.13623
1 -2.6893 3.19778
1 -2.72491 3.25932
1 3.06289 3.84347
1 3.10318 3.9131
1 -3.06494 3.84701
1 -3.10498 3.91621
1 2.05803 2.10672
1 2.09204 2.16551
1 2.12606 2.2243
0.928983 -3.41008 5
0.989383 -3.51686 5
1 -2.13924 2.24708
1 -2.17279 2.30507
1 -2.20634 2.36306
1 -0.777794 5
1 -0.695621 5
1 -3.14566 3.98652
1 -3.18793 4.05957
1 -3.23019 4.13262
1 1.1789 0.587282
1 1.21942 0.657322
1 -1.64264 1.38879
1 -1.67514 1.44496
1 -1.70764 1.50113
1 -0.136573 5
1 -0.0569072 5
1 -0.613449 5
1 2.26218 2.45957
1 2.29668 2.5192
1 2.33118 2.57882
1 -0.532861 5
1 -0.452934 5
1 2.94567 3.64088
1 2.98436 3.70774
1 3.02305 3.7746
1 3.36506 4.36572
1 3.41235 4.44745
1 -2.83453 3.44877
1 -2.87238 3.51419
1 -2.91023 3.57961
1 0.0888376 0
1 -0.37332 5
1 -0.294655 5
1 -0.21599 5
1 -1.54497 1.21999
1 2.43661 2.76104
1 2.47202 2.82224
1 2.50743 2.88343
1 0.146365 0
0.205647 -0.172559 0
0.168875 -0.141703 0
1 0.643659 5
1 0.744468 5
0.978752 3.49806 5
0.954963 3.45601 5
0.931174 3.41396 5
0.907385 3.3719 5
1 3.677 4.90485
0.995071 3.71365 5
0.990141 3.69526 5
0.985212 3.67686 5
0.980282 3.65846 5
0.975353 3.64007 5
0.970423 3.62167 5
0.965494 3.60327 5
0.960565 3.58488 5
0.955635 3.56648 5
0.950706 3.54808 5
1 3.56592 4.71287
1 3.62179 4.80943
1 -2.54747 2.95265
1 -2.58284 3.01377
1 -2.6182 3.07488
1 -1.56409 5
1 -1.47232 5
1 3.27397 4.20828
1 3.31862 4.28546
1 3.14407 3.98377
1 3.18678 4.05758
1 3.22948 4.13139
1 -1.44988 1.05563
1 -1.4815 1.11029
1 -1.51313 1.16495
0 0 3.83452
0 0 3.89229
0 0 3.95007
0 0 4.00789
0 0 4.06597
0 0 4.12405
0 0 4.18213
1 0.273292 4.82697
1 -0.530259 4.65368
1 -0.451569 4.71168
1 -0.451772 4.76941
1 0.644394 1.36712
1 0.742965 1.42311
1 0.574473 2.04475
1 0.572331 2.10958
1 0.672537 2.03488
1 3.44719 4.5361
1 3.49782 4.6236
1 3.43285 4.53974
1 3.48347 4.62724
1 3.4185 4.54339
1 3.46913 4.63088
1 3.45478 4.63453
1 3.44044 4.63817
1 3.4261 4.64181
1 3.41175 4.64545
1 3.39741 4.6491
1 3.38306 4.65274
1 3.36872 4.65638
1 3.48815 4.72437
1 3.4737 4.72797
1 3.45925 4.73157
1 3.4448 4.73516
1 3.43036 4.73876
1 3.41591 4.74236
1 3.40146 4.74595
0.944276 3.39152 4.74608
1 3.43303 4.83528
0.895026 3.30295 4.9212
0.935106 3.36056 4.74905
1 3.38153 4.83938
1 0.271635 4.59621
1 0.272047 4.65394
1 -0.206138 2.8376
1 -0.205296 2.89846
1 -0.204453 2.95933
1 -0.136655 2.8385
1 -1.75302 4.87826
1 -1.75424 4.93922
1 0.445989 4.30478
1 0.447252 4.36296
1 0.448515 4.42113
1 -0.0569517 4.88492
0.0338156 -0.122115 4.88202
0.0169078 -0.0610575 4.82337
0.0169078 -0.0610575 4.88219
0.0169078 -0.0610575 4.94101
1 3.06738 4.85575
1 3.05955 4.92788
1 1.58143 2.44911
1 1.53942 2.53021
1 1.57012 1.59712
0.880919 1.57749 1.59256
0.888118 1.61879 1.64764
1 1.60096 1.73224
1 1.81068 2.00523
1 1.84407 2.06376
0.974538 1.92225 1.94839
0.965762 1.91089 1.95424
1 1.85471 1.90751
0.956986 1.89953 1.96009
1 1.84077 1.91469
0.94821 1.88817 1.96595
1 1.82683 1.92186
0.939434 1.87681 1.9718
0.94091 1.91071 2.03019
1 1.8129 1.92904
0.930658 1.86545 1.97765
0.932134 1.89935 2.03605
1 1.79896 1.93621
0.921882 1.85409 1.9835
0.923358 1.88799 2.0419
1 3.20904 4.42116
1 3.1492 4.34863
1 3.19148 4.4269
1 3.15727 4.43584
1 3.12305 4.44477
1 3.13622 4.35349
1 0.15986 1.10168
1 0.149504 1.1774
1 1.27972 4.22256
1 1.28359 4.28275
1 1.28609 4.34302
1 -0.0559175 4.30865
1 -0.0561384 4.36643
1 -0.0563592 4.42422
1 0.0233294 4.30847
1 -0.692753 4.8266
1 -0.61171 4.82683
1 -0.612095 4.88455
1 -0.612456 4.94226
1 -0.532068 4.88468
1 0.0861091 2.95748
1 0.0869864 3.01806
1 0.0878637 3.07863
1 0.0840359 2.83495
1 -0.353284 3.3743
1 -0.280362 3.37615
1 1.42928 4.94019
1 1.30001 4.76222
1 1.30138 4.82181
0 0 3.37882
1 0.0907941 3.2572
1 0.0916052 3.31645
0 0 3.21486
0 0 3.26952
0 0 3.32417
1 0.666473 2.42051
1 0.764545 2.40983
1 0.763013 2.47422
1 0.761481 2.53861
1 -0.132508 2.33829
1 -0.134021 2.40136
0.139298 -0.262224 2.29382
0.13861 -0.26513 2.35473
0.137922 -0.268035 2.41563
1 0.764047 2.28209
1 0.764302 2.34596
1 -0.406905 2.45995
1 -0.408765 2.52284
1 -0.410625 2.58574
1 -0.340191 2.462
1 -0.342051 2.52489
1 -0.273477 2.46405
1 1.00734 1.98253
1 1.1516 1.95079
1 1.13593 2.0221
1 0.971849 1.51587
0.784624 1.41432 1.58835
1 -2.39308 4.80741
1 -2.39737 4.87163
1 -2.40166 4.93585
0.94998 -3.50036 4.91462
0.958151 -3.52783 4.91162
0.966323 -3.5553 4.90863
0.974495 -3.58277 4.90563
0.982897 -3.61294 4.90445
0.991449 -3.64485 4.90445
1 0.598654 0.56393
1 2.81335 4.0306
1 2.86531 4.0966
1 2.95599 4.14971
1 2.90894 4.16537
0.930067 2.98345 4.05438
0.92797 3.01532 4.12791
0.910483 2.93201 4.07049
0.939995 3.12479 4.26583
1 3.04515 4.20581
1 3.0966 4.27768
1 3.04362 4.29327
1 2.99012 4.30894
0.925879 2.89911 3.91702
1 2.82793 3.94359
0.907327 2.8887 4.00187
0.930059 2.94598 3.98284
0.867114 2.85565 4.17781
1 -1.89056 2.65163
1 -1.90073 2.71784
1 -1.88708 2.43909
1 -1.88096 2.51365
0.776444 -1.81102 2.46637
0.768537 -1.82176 2.5316
0.760631 -1.8325 2.59684
0.717245 -1.74453 2.62605
0.750241 -1.83993 2.66452
0.859475 2.31975 3.12406
0.922691 2.44246 3.0726
0.916094 2.43112 3.07815
0.891233 2.38305 3.09832
0.88078 2.3294 3.04417
1 2.32661 3.1984
0.819414 2.2956 3.28156
1 2.54752 3.259
0.918358 2.50179 3.20111
1 2.52176 3.27031
0.904962 2.47499 3.21299
0.900682 2.49872 3.27927
1 2.51264 3.35163
1 0.740349 4.70891
1 0.741767 4.76714
1 0.743185 4.82537
1 0.846759 4.82489
1 0.514691 3.59945
1 0.516685 3.65845
1 0.606176 3.59569
1 -2.24381 3.66943
1 -2.25469 3.73738
1 2.60649 3.46853
1 2.58767 3.55468
0.882809 2.55974 3.48592
1 2.72337 3.57785
1 2.66537 3.52303
0.923735 2.71578 3.58028
0.905557 2.67621 3.59612
0.933432 2.70133 3.50618
1 2.63253 3.45749
1 2.62768 3.53844
0.994527 2.82106 3.44877
0.988973 2.81018 3.45399
0.983419 2.79929 3.45921
0.977865 2.78841 3.46443
0.972311 2.77752 3.46965
0.966757 2.76664 3.47486
0.961203 2.75575 3.48008
1 2.78525 3.54871
0.955648 2.74487 3.4853
1 2.77321 3.55435
0.950094 2.73398 3.49052
1 2.76118 3.55999
0.94454 2.7231 3.49574
1 2.74914 3.56563
0.938986 2.71221 3.50096
1 2.73698 3.57144
1 2.70708 3.66576
1 2.67179 3.68035
[...]
CELL_DATA 0
SCALARS CellEntityIds int 1
LOOKUP_TABLE default
