# vtk DataFile Version 2.0 
Created by AlgoHex
ASCII
DATASET UNSTRUCTURED_GRID
POINTS 35 double
0 0 1.5
0.000988785 0.0160314 0
0.195381 0.260195 0.896779
-0.460612 0.54657 0.178164
0.312354 0.366455 0.609911
0.305482 0.348283 0.644656
0.295074 0.333664 0.677927
0.276504 0.325891 0.709826
0.244342 0.30724 0.772852
0.22826 0.297915 0.804366
0.212179 0.28859 0.835879
0.195808 0.279417 0.86748
0.194914 0.240824 0.926343
0.194448 0.221454 0.955907
0.193981 0.202084 0.985471
0.193514 0.182714 1.01503
0.13346 -0.258816 1.02013
-0.251196 -0.000964981 1.0565
0.232279 0.0754721 1.13365
0.208438 0.0677254 1.17125
0.174194 0.0565991 1.22526
-0.413396 0.554012 0.218458
0.633642 -0.195742 0.270514
0.6088 -0.201401 0.311076
0.584842 -0.209558 0.34865
0.377616 0.46657 0.388614
0.356888 0.454338 0.429551
0.343823 0.439513 0.466027
0.334642 0.421727 0.502712
0.4837 -0.188099 0.539295
0.260423 0.316565 0.741339
0 0.967836 0.048246
0.318671 0.385284 0.574782
-0.61396 0.494043 0.0898331
-0.524213 0.527472 0.137498

CELLS 0 0

CELL_TYPES 0

CELL_DATA 0
SCALARS CellEntityIds int 1
LOOKUP_TABLE default
