# vtk DataFile Version 2.0 
Created by AlgoHex
ASCII
DATASET UNSTRUCTURED_GRID
POINTS 36 double
0.0701343 0.0477757 0
0.205362 0.278041 0.859132
-0.017744 -0.0351747 1.43478
0.225728 -0.0726976 1.06031
0.298524 0.416557 0.549829
0.226917 0.319913 0.772834
0.219603 0.306085 0.801546
0.153199 -0.0597649 1.19561
0.345742 0.457439 0.437046
0.329516 0.44335 0.475864
0.284428 0.403002 0.585523
0.260345 0.375793 0.652582
0.252078 0.361457 0.683096
0.27223 0.389322 0.619336
0.191286 -0.0714558 1.12175
0.172703 -0.0690292 1.15591
0.313005 0.429955 0.51395
0.208462 -0.072662 1.09078
0.363723 0.470593 0.39772
0.197832 0.264253 0.88802
0.190302 0.250466 0.916907
0.182799 0.236575 0.94592
0.175571 0.222816 0.974436
0.168342 0.209057 1.00295
0.437647 0.500069 0.272943
0.161211 0.194515 1.03254
0.385446 0.481473 0.357726
0.0496292 0.899985 0.0959359
0.21248 0.292104 0.83028
0.243256 0.347657 0.713411
0.23446 0.333853 0.743702
0.158585 0.850532 0.0513736
0.408084 0.492841 0.316003
0.514918 0.500842 0.187573
0.471879 0.502551 0.231913
0.580487 0.483569 0.142023

CELLS 0 0

CELL_TYPES 0

CELL_DATA 0
SCALARS CellEntityIds int 1
LOOKUP_TABLE default
