# vtk DataFile Version 2.0 
Created by AlgoHex
ASCII
DATASET UNSTRUCTURED_GRID
POINTS 1579 double
-1 0.0133557 0
1 -0.0290221 0
0 0 1.41421
-0.044002 0.543901 0.645022
-0.198476 0.154336 1.13353
-0.19694 0.108304 1.1357
-0.12387 0.12387 1.23904
-0.465779 0.0767302 0.755503
-0.442612 0.070129 0.788266
-0.419444 0.0635278 0.821029
-0.397273 0.0622318 0.852384
-0.376476 0.0682476 0.881797
-0.252013 0.062684 1.05781
-0.240384 0.0533949 1.07426
-0.823149 0.0115353 0.250105
-0.797726 0.00983345 0.286059
-0.772303 0.00813155 0.322013
-0.746059 0.012938 0.359127
0.195608 0.0426522 1.13758
0.197248 0.101405 1.13526
0.198888 0.160157 1.13294
-1 -0.380833 0
-0.601176 0.00894313 0
-0.543796 0.00663491 0
-0.491111 0.00437258 0
-0.438426 0.00211024 0
-0.530021 0.189726 0.66465
-0.509752 0.0253913 0.693316
-0.487875 0.0540652 0.724254
0.739819 -0.0300183 0.367952
0.716734 -0.0354294 0.400599
0.693481 -0.0297618 0.433484
0.670175 -0.0206246 0.466443
-0.355678 0.0742635 0.91121
-0.337558 0.0789299 0.936834
-0.320587 0.0830181 0.960836
-0.303615 0.0871063 0.984837
-0.2869 0.0905515 1.00848
-0.275271 0.0812624 1.02492
-0.263642 0.0719732 1.04137
-0.385793 0.000440082 0
-0.334124 0.00960062 0
-0.282954 0.00970574 0
-0.232192 0.00240967 0
0.454671 -0.0403634 0.771211
0.478356 -0.0469998 0.737716
0.506071 0.0478443 0.698521
0.529419 0.0751438 0.665502
0.969086 -0.0305485 0.0437197
0.937448 -0.0310717 0.0884625
0.84999 -0.0286185 0
0.923854 -0.0289886 0
0.905642 -0.0313629 0.133442
0.848081 -0.028258 0.214846
0.820768 -0.0258112 0.253473
0.793454 -0.0233645 0.2921
0.76523 -0.0251047 0.332015
0.246792 0.00371958 1.0652
-1 0.716034 0
0.449822 -0.0247952 0
0.49743 -0.0241897 0
0.544938 -0.0243828 0
0.244979 -0.0190039 0
0.299283 -0.0248998 0
0.35234 -0.0260033 0
0.402214 -0.0254006 0
0.658326 -0.0268388 0
0.717575 -0.0268839 0
0.780413 -0.0279309 0
0.259998 0.00867459 1.04652
0.273204 0.0136296 1.02784
0.28641 0.0185846 1.00917
0.299616 0.0235396 0.990492
0.313174 0.0275913 0.971318
0.331428 0.0230397 0.945504
0.352266 0.0187527 0.916034
-0.180089 -0.00350721 0
-0.126048 -0.00740624 0
-0.0724749 -0.00959708 0
-0.0189014 -0.0117879 0
-0.90319 0.015411 0.13691
-0.873996 0.0149391 0.178197
-0.848572 0.0132372 0.214151
-0.646159 -0.00258227 0.500407
-0.623041 -0.0153187 0.533101
-0.599922 -0.0280551 0.565795
-0.576804 -0.0407916 0.59849
0.599078 -0.0267936 0
-0.968243 0.0141807 0.0449107
-0.935717 0.0147958 0.0909104
-0.927443 0.013432 0
-0.856533 0.0134898 0
1 -0.745833 0
0.0344748 -0.0140706 0
0.0874597 -0.0160101 0
0.140116 -0.0171464 0
0.190858 -0.0135942 0
0.875395 -0.0307047 0.176219
-0.721073 0.0133018 0.394462
-0.69603 0.00829637 0.429879
-0.670986 0.00329095 0.465295
-0.786908 0.0128581 0
-0.722316 0.010339 0
-0.661746 0.00964105 0
0.646869 -0.0114874 0.499403
0.623539 -0.00201712 0.532397
0.600205 0.00749876 0.565395
0.576872 0.0170147 0.598393
-0.542079 0.318321 0.647599
1 0.347821 0
0.372085 0.0132879 0.888006
0.391302 0.00712786 0.860829
0.410519 0.000967789 0.833652
0.431744 -0.015381 0.803635
0.553539 0.0265305 0.631391
-0.477732 -0.665533 0.473007
-0.458557 -0.640245 0.508771
-0.439383 -0.614956 0.544535
-0.444177 -0.670684 0.465723
-0.425003 -0.645396 0.501486
-0.406259 -0.620239 0.537063
-0.391448 -0.650547 0.494202
-0.374665 -0.625994 0.528924
-0.357893 -0.655698 0.486917
-0.149063 -0.203422 1.12653
-0.125626 -0.18728 1.14936
-0.107094 -0.168748 1.17557
-0.140052 -0.224887 1.09617
-0.110018 -0.211962 1.11445
-0.494224 -0.750331 0.353085
-0.473263 -0.720115 0.395817
-0.474458 -0.783012 0.306867
-0.453498 -0.752797 0.349598
-0.433732 -0.785478 0.30338
-0.412772 -0.755262 0.346111
-0.372046 -0.757728 0.342625
-0.402452 -0.814988 0.261647
-0.390254 -0.787186 0.300965
-0.363046 -0.842259 0.223079
-0.350848 -0.814457 0.262397
-0.338651 -0.786655 0.301715
-0.311443 -0.841729 0.223829
-0.157422 -0.795119 0.289745
-0.154885 -0.769934 0.325362
-0.117061 -0.843087 0.221909
-0.114524 -0.817902 0.257525
-0.111987 -0.792717 0.293142
-0.10945 -0.767533 0.328759
-0.0716266 -0.840685 0.225305
-0.0690897 -0.815501 0.260922
-0.0665529 -0.790316 0.296538
-0.064016 -0.765131 0.332155
-0.0185816 -0.762729 0.335551
-0.335338 -0.361763 0.902604
-0.315554 -0.341979 0.930582
-0.29577 -0.322195 0.958561
-0.294302 -0.347153 0.923265
-0.274518 -0.327369 0.951244
-0.253267 -0.332543 0.943927
0.0355821 -0.365122 0.897853
0.0607052 -0.358335 0.907451
0.0382068 -0.38492 0.869854
0.0633299 -0.378133 0.879452
0.088453 -0.371346 0.889051
0.138699 -0.357772 0.908247
0.0408315 -0.404718 0.841855
0.0659546 -0.397931 0.851453
0.0910777 -0.391144 0.861052
0.116201 -0.384357 0.87065
0.141324 -0.37757 0.880248
0.0434562 -0.424517 0.813856
-0.290018 -0.665532 0.47301
-0.258171 -0.69278 0.434474
-0.251004 -0.66932 0.467652
-0.226325 -0.720029 0.395938
-0.219157 -0.696569 0.429117
-0.211989 -0.673108 0.462295
-0.194478 -0.747278 0.357403
-0.18731 -0.723817 0.390581
-0.180143 -0.700357 0.423759
-0.172975 -0.676896 0.456938
-0.165807 -0.653436 0.490116
-0.133961 -0.680685 0.45158
-0.126793 -0.657224 0.484759
-0.677808 -0.721573 0.393755
-0.643513 -0.727966 0.384714
-0.632073 -0.763024 0.335135
-0.609218 -0.73436 0.375672
-0.586362 -0.705696 0.416209
-0.552067 -0.712089 0.407168
-0.177965 -0.966129 0.0479002
-0.175461 -0.933009 0.0947389
-0.172958 -0.899889 0.141578
-0.170231 -0.86776 0.187015
-0.12552 -0.931877 0.0963404
-0.123634 -0.897994 0.144258
-0.120476 -0.86778 0.186988
-0.460916 -0.488829 0.722906
-0.453056 -0.518555 0.680865
-0.437391 -0.495697 0.713192
-0.449416 -0.550825 0.635229
-0.412152 -0.50279 0.703161
-0.424 -0.557849 0.625296
-0.398584 -0.564872 0.615363
-0.554135 -0.331738 0
-0.497915 -0.318622 0
0.868895 0.418781 0.18541
-0.70911 -0.754232 0.347569
-0.666404 -0.756647 0.344153
-0.0885612 -0.150216 1.20178
-0.0799851 -0.199036 1.13273
-0.0585902 -0.181899 1.15697
-0.13104 -0.246353 1.06582
-0.101007 -0.233427 1.0841
-0.0709739 -0.220502 1.10238
-0.0409407 -0.207576 1.12066
-0.0944167 -0.255616 1.05272
-0.0659426 -0.243155 1.07034
-0.0374685 -0.230695 1.08796
-0.0631034 -0.266463 1.03738
-0.0346293 -0.254003 1.055
-0.0317901 -0.277311 1.02204
0.398061 0.278208 0
0.451714 0.296397 0
-0.206352 -0.795562 0.289119
0.258114 -0.819155 0.255754
0.254758 -0.795382 0.289373
0.248045 -0.747837 0.356613
0.300202 -0.795878 0.288672
-0.128528 -0.414193 0.828456
-0.121526 -0.439662 0.792437
-0.097642 -0.423991 0.8146
-0.0737575 -0.408319 0.836763
-0.0906402 -0.44946 0.778581
-0.0667558 -0.433789 0.800744
-0.059754 -0.459258 0.764724
-0.0253698 -0.469874 0.749711
0.588883 -0.96596 0.0481401
0.580012 -0.932013 0.0961485
0.571142 -0.898066 0.144157
0.633409 -0.93057 0.0981895
0.624575 -0.896579 0.14626
0.678033 -0.895062 0.148404
0.649441 -0.800883 0
0.711506 -0.799852 0
0.773571 -0.798822 0
0.488329 -0.35945 0
0.541451 -0.373816 0
-0.963555 -0.728808 0.0515408
-0.92711 -0.6862 0.103082
0.359373 -0.535404 0.657038
0.335628 -0.510449 0.69233
0.383216 -0.530046 0.664615
0.359394 -0.505077 0.699926
0.407059 -0.524688 0.672192
0.430901 -0.51933 0.67977
0.454744 -0.513972 0.687347
-0.659111 -0.86131 0.196137
-0.634833 -0.827872 0.243426
-0.611718 -0.862579 0.194343
-0.495223 -0.959379 0.0574466
-0.438974 -0.959379 0.0574466
-0.433442 -0.921663 0.110785
-0.477832 0.808413 0
0.138095 0.25308 0
0.188272 0.255066 0
0.607001 0.820486 0
-0.439304 -0.467217 0.753469
-0.417693 -0.445606 0.784032
-0.396081 -0.423994 0.814595
-0.37497 -0.401886 0.845861
-0.417972 -0.473798 0.744162
-0.39636 -0.452186 0.774725
-0.374749 -0.430575 0.805289
-0.39664 -0.480379 0.734856
-0.375028 -0.458767 0.765419
-0.353417 -0.437156 0.795982
-0.372144 -0.487374 0.724962
-0.353696 -0.465348 0.756112
-0.346906 -0.494467 0.714931
-0.332136 -0.471959 0.746763
-0.321667 -0.50156 0.7049
-0.296428 -0.508653 0.694869
-0.320268 -0.737227 0.371618
-0.309101 -0.713166 0.405645
-0.297935 -0.689105 0.439672
-0.266607 -0.716431 0.401027
0.541096 -0.695968 0.429967
0.573758 -0.689912 0.438531
0.548056 -0.66421 0.474879
0.60642 -0.683856 0.447095
0.580718 -0.658154 0.483443
0.638938 0.676662 0.457269
0.61338 -0.652098 0.492007
0.587678 -0.626396 0.528355
0.661989 0.81301 0
0.721241 0.814444 0
0.167096 -0.371852 0.888335
0.0696235 -0.419451 0.821021
0.0960062 -0.41474 0.827683
0.122389 -0.410029 0.834346
0.148772 -0.405318 0.841008
0.175154 -0.400607 0.84767
0.130448 -0.438783 0.793681
0.15683 -0.434072 0.800343
0.183213 -0.429361 0.807006
0.924127 -0.475419 0.1073
0.897635 -0.549524 0.144766
0.714576 0.861689 0.195601
0.69037 0.828653 0.242321
0.666165 0.795618 0.28904
0.752724 0.854328 0.206011
0.728518 0.821292 0.252731
0.766666 0.813931 0.263141
0.370123 -0.74389 0.362195
0.358877 -0.717902 0.398947
0.34763 -0.691914 0.435699
0.407104 -0.739822 0.367947
0.395858 -0.713834 0.4047
0.384611 -0.687846 0.441452
0.432839 -0.709766 0.410452
0.421592 -0.683778 0.447205
0.46982 -0.705699 0.416205
0.506801 -0.701631 0.421958
0.564916 -0.724103 0.390177
0.641882 0.768131 0.327913
0.621014 0.742616 0.363996
0.600145 0.717101 0.40008
0.6524 0.734593 0.375342
0.631531 0.709079 0.411425
0.662917 0.701056 0.42277
-0.270141 0.836977 0
0.0592151 -0.457053 0.767843
0.082379 -0.45066 0.776885
0.105543 -0.444266 0.785926
0.169416 -0.465192 0.756332
0.479136 -0.927829 0.102066
0.538445 -0.963868 0.0510988
0.529574 -0.929921 0.0991071
0.520703 -0.895974 0.147116
0.594408 -0.811992 0
-0.255603 -0.290195 1.00382
-0.240774 -0.275367 1.02479
-0.225946 -0.260538 1.04576
-0.211117 -0.245709 1.06673
-0.196288 -0.23088 1.0877
-0.213277 -0.282461 1.01475
-0.198448 -0.267633 1.03572
-0.18362 -0.252804 1.0567
-0.168791 -0.237975 1.07767
-0.170951 -0.274727 1.02569
-0.156122 -0.259899 1.04666
-0.54867 -0.962912 0.05245
-0.539755 -0.928902 0.100548
-0.486565 -0.925043 0.106006
-0.0680343 0.253138 0
-0.0162116 0.252695 0
0.0356111 0.252251 0
0.0874338 0.251808 0
0.792275 0.338452 0
0.703507 0.78917 0.298159
-0.384898 -0.959379 0.0574466
-0.332893 -0.959379 0.0574466
-0.42764 -0.525579 0.670933
-0.445777 -0.583095 0.589592
-0.402223 -0.532603 0.661
[...]
CELL_DATA 0
SCALARS CellEntityIds int 1
LOOKUP_TABLE default
