# vtk DataFile Version 2.0 
Created by AlgoHex
ASCII
DATASET UNSTRUCTURED_GRID
POINTS 1760 double
-0.00420183 -1 0
0.00191534 1 0
-0.436757 0.0551919 0.796546
-0.00766893 0.144427 1.02449
0.04 -0.04 1.35765
0.0419429 0.612474 0.548044
0.0726923 0.590862 0.578608
0.00398792 0.722454 0.392509
0.00600254 0.700379 0.423728
0.00928496 0.678307 0.454942
0.025111 0.634227 0.517281
-0.00103839 0.792343 0.293671
-0.000675789 0.816919 0.258916
7.71549e-05 0.841763 0.22378
0.00136027 0.927581 0.102416
0.000525574 0.895616 0.147621
0.000233781 0.868096 0.18654
0.00146413 0.78818 0
0.00128867 0.725229 0
0.00152791 0.855672 0
0.00176582 0.91986 0
0.00172292 0.962179 0.0534868
0.789931 1 0
0.000808388 0.554701 0
0.000994956 0.501385 0
0.000123762 0.449155 0
0.00114738 0.665246 0
0.00117238 0.608675 0
0.000136377 0.346351 0
-0.0009331 0.296492 0
-0.00118043 0.247469 0
-0.0015925 0.101988 0
-0.00213813 0.0535632 0
-0.0026538 0.00507716 0
-0.000701176 0.198906 0
-0.00119289 0.150485 0
0.000343052 0.397033 0
0.000709935 0.768448 0.327464
0.00242128 0.745468 0.359962
-0.00337178 -0.716945 0.400301
-0.00366502 -0.69461 0.431887
-0.00280544 -0.239128 0
-0.00306836 -0.390603 0
-0.00243306 -0.442465 0
-0.00269382 -0.494988 0
-0.00311003 -0.28887 0
-0.00304148 -0.338698 0
-0.00354075 -0.788565 0.299014
-0.00339949 -0.813865 0.263234
-0.00298901 -0.728814 0
-0.00237377 -0.550579 0
-0.00360957 -0.894425 0.149306
-0.00367109 -0.866657 0.188576
-0.0040734 -0.961183 0.0548953
-0.00402259 -0.925582 0.105243
0.782206 -1 0
-0.00379108 -0.856162 0
-0.00409978 -0.922081 0
-0.00260066 -0.606383 0
-0.00217198 -0.665916 0
-0.0036912 -0.788385 0
0.000242729 -0.649552 0.495608
-0.00309262 -0.672151 0.463648
-0.00500978 -0.764148 0.333545
-0.00483189 -0.740412 0.367113
-0.388148 -1 0
-0.00386155 -0.839737 0.226646
-0.0166043 0.452369 0.774467
-0.0117575 0.434758 0.799373
-0.00352991 -0.140235 0
-0.00320751 -0.189372 0
0.0108756 -0.606175 0.556953
-0.00341435 -0.0432411 0
-0.00370042 -0.0916588 0
0.0116781 -0.627988 0.526104
-0.100051 0.5277 0.667932
-0.062269 0.509409 0.6938
-0.363649 1 0
-0.0113668 0.346661 0.923961
-0.0236053 0.334902 0.94059
-0.0356628 0.320803 0.96053
0.0105186 0.65628 0.486094
-0.253665 0.560624 0.621372
-0.174593 0.544354 0.644381
-0.0404223 0.490004 0.721243
-0.0234007 0.471189 0.747852
-0.00574476 0.417422 0.82389
-0.00534765 0.401121 0.846943
-0.00509834 0.386271 0.867944
-0.0529572 0.304925 0.982985
-0.0866001 0.280372 1.01771
-0.120603 0.181027 1.1582
-0.126798 0.126798 1.23489
0.10508 0.259902 1.04666
0.124675 0.213259 1.11262
-0.00474444 0.37158 0.888719
-0.00252761 0.358612 0.90706
-0.0859756 0.0859756 1.29263
0.0155814 -0.281892 1.01556
0.0128467 -0.26766 1.03569
0.0107257 -0.253547 1.05564
0.00744368 -0.239448 1.07558
-0.103629 -0.182315 1.15638
-0.0113148 -0.224143 1.09723
-0.0364014 -0.539054 0.651875
-0.0186869 -0.51758 0.682246
0.00249918 -0.584106 0.588162
0.0413363 -0.562571 0.618618
-0.0093757 -0.496151 0.71255
-0.0101232 -0.474428 0.743271
-0.00366815 -0.452703 0.773994
-0.00275978 -0.431452 0.804048
-0.000667919 -0.410477 0.833711
0.00541241 -0.389965 0.862719
0.00882691 -0.369878 0.891127
0.0135443 -0.350516 0.91851
0.0197122 -0.331737 0.945067
0.0211323 -0.314209 0.969855
0.0186877 -0.297991 0.99279
0.375458 0.851622 0
-0.320342 0.161321 0.961182
-0.315115 0.185927 0.968574
-0.301392 0.164983 0.987981
-0.310178 0.208276 0.975556
-0.482034 0.0702395 0.732514
-0.440174 0.0756472 0.791714
-0.443591 0.0961026 0.786882
-0.530193 -0.38098 0.664407
-0.508815 -0.362285 0.69464
-0.502882 -0.387173 0.703031
-0.584205 0.249666 0.588023
-0.562747 0.242716 0.618369
-0.541289 0.235767 0.648715
-0.521303 0.467983 0.676979
-0.51636 0.385252 0.68397
-0.484922 0.410812 0.728431
-0.48979 0.389726 0.721546
-0.494675 0.368812 0.714637
-0.61275 0.159304 0.547654
-0.589298 0.187991 0.58082
-0.815388 0.282725 0.26108
0.71421 0.602028 0.404169
0.719859 0.569757 0.396179
-0.657826 0.0130113 0.483908
-0.657712 -0.0257455 0.484068
-0.636725 0.0139336 0.513749
-0.837809 0.4757 0.229373
-0.865529 0.485115 0.19017
-0.720343 0.217327 0.395495
-0.721254 0.176016 0.394206
0.624957 0.590742 0.530391
0.63238 0.563951 0.519893
0.579244 0.54708 0.595039
0.726572 0.688112 0.386686
0.734319 0.657337 0.37573
0.754964 0.714123 0.346533
0.784042 0.742808 0.305411
0.858168 0.66561 0
0.848861 0.804909 0.213743
0.960513 0.779971 0.0558426
0.882765 0.835559 0.165796
0.923446 0.871547 0.108264
0.958218 0.722453 0.0590884
0.959165 0.899556 0.0577491
0.791222 0.916872 0
0.773112 0.960573 0.0557584
0.961731 0.83981 0.0541204
0.669769 0.528574 0.467017
0.888038 0.7914 0.158338
0.339278 0.550907 0
0.758215 0.478234 0.341935
0.673124 0.638186 0.462272
0.68035 0.610474 0.452053
0.823922 0.739321 0.249012
-0.865108 0.5343 0.190766
0.858918 0.399356 0
-0.637709 0.405906 0.512357
-0.642127 0.374532 0.50611
0.830997 0.720596 0
-0.672932 0.281855 0.462544
-0.674512 0.244309 0.46031
0.926987 0.768608 0.103256
0.891442 0.743 0.153524
0.95937 0.557023 0.057459
0.959218 0.503887 0.0576745
0.959077 0.666316 0.0578744
0.927149 0.605347 0.103027
0.829345 0.783976 0
-0.865341 0.583449 0.190437
0.927774 0.552319 0.102143
0.865591 0.503185 0
0.380435 0.928652 0.100901
0.926072 0.658322 0.10455
0.893669 0.646341 0.150375
0.859196 0.722749 0.199128
-0.737904 0.387945 0.37066
-0.739341 0.347274 0.368627
-0.71399 0.376951 0.404479
-0.764689 0.313494 0.332779
-0.765742 0.27157 0.331291
-0.740718 0.306239 0.366681
-0.92884 0.448523 0.100636
-0.958432 0.299485 0.0587866
-0.959604 0.249832 0.057128
0.867975 0.348693 0
0.960692 0.400339 0.0555896
-0.841542 0.288224 0.224094
0.896467 0.494409 0.146418
-0.928067 0.397708 0.101729
-0.896709 0.149924 0.146075
-0.763315 0.357148 0.334723
0.871414 0.298473 0
0.872648 0.248583 0
0.928491 0.247912 0.10113
-0.928255 0.199819 0.101463
0.960608 0.349546 0.0557092
-0.550033 0.120578 0.63635
-0.526408 0.147609 0.66976
-0.527999 0.119515 0.66751
-0.896503 0.0534779 0.146367
-0.896988 0.00533825 0.14568
-0.722352 -0.0328743 0.392654
-0.722198 -0.0749543 0.392871
-0.839649 0.42861 0.22677
-0.928535 0.150952 0.101067
-0.960683 0.102489 0.0556023
0.960701 0.0500845 0.0555772
-0.959747 0.00472789 0.0569264
-0.958501 -0.0442731 0.0586887
-0.960006 0.200517 0.0565607
0.875839 0.149204 0
0.9291 0.500781 0.100267
-0.928803 0.102167 0.100688
0.960084 0.45186 0.0564501
-0.607775 -0.161953 0.55469
-0.58609 -0.15384 0.585358
-0.583176 -0.186632 0.589477
-0.600292 0.319765 0.565273
-0.578178 0.309605 0.596546
0.699538 0.66144 0.424917
-0.869762 0.0058506 0.184184
-0.897231 0.443939 0.145337
-0.603653 0.290138 0.56052
-0.5816 0.280058 0.591707
0.827604 0.698902 0.243805
-0.715602 0.337274 0.4022
-0.678171 -0.42139 0.455135
-0.868391 0.340206 0.186124
0.863367 0.610775 0
-0.699714 0.132101 0.424668
-0.677873 0.130004 0.455557
0.262976 0.0512263 0
-0.543715 0.206251 0.645284
-0.545938 0.177469 0.642141
-0.521925 0.203221 0.676101
-0.524169 0.175788 0.672927
-0.591678 0.155757 0.577455
-0.569961 0.152878 0.608168
-0.524327 -0.406125 0.672703
-0.444849 -0.307704 0.785102
-0.841811 -0.183608 0.223713
-0.377425 0.261897 0.880454
-0.3608 0.24333 0.903965
-0.356778 0.263617 0.909653
-0.351729 0.282257 0.916794
-0.717845 -0.200737 0.399028
-0.695208 -0.193143 0.431041
-0.639708 -0.322416 0.509529
-0.617032 -0.308599 0.541598
-0.262013 0.0938882 1.04367
-0.248833 0.0668144 1.06231
-0.670888 -0.634759 0.465434
-0.863853 -0.579078 0.192541
-0.841413 0.381818 0.224277
-0.841342 0.33472 0.224376
-0.652848 -0.582887 0.490948
-0.645504 -0.610649 0.501333
0.926535 -0.396777 0.103896
0.929641 -0.29706 0.0995022
-0.518376 -0.430415 0.68112
-0.545888 -0.297534 0.642212
0.300888 -0.39045 0
-0.670375 -0.224189 0.46616
-0.648337 -0.215447 0.497327
0.868971 -0.247294 0
0.261757 -0.0457547 0
0.311336 -0.441546 0
-0.569977 -0.0801018 0.608144
-0.549062 -0.0748276 0.637722
-0.841814 0.00609534 0.223709
0.874137 0.000427164 0
-0.768548 0.00710391 0.327322
-0.745514 0.00824487 0.359898
-0.74513 -0.0352004 0.36044
0.863511 0.0994047 0
-0.959758 -0.192214 0.0569112
-0.927526 -0.141869 0.102494
-0.929491 -0.191277 0.0997155
-0.959825 -0.242 0.0568159
-0.959218 -0.0933418 0.0576747
-0.791436 -0.129501 0.294954
-0.926597 0.00488777 0.103808
0.867307 -0.0984638 0
-0.790386 -0.175096 0.29644
-0.766387 -0.170449 0.330378
-0.744805 0.0517321 0.3609
-0.743804 -0.121553 0.362316
-0.721054 -0.117159 0.394489
-0.335369 0.264322 0.939931
-0.33032 0.282962 0.947071
-0.32527 0.301602 0.954212
-0.744535 -0.0785383 0.361282
-0.626502 -0.20577 0.528205
-0.604676 -0.195638 0.559073
-0.688895 -0.311421 0.439969
0.855349 -0.767416 0.204567
-0.780743 -0.486841 0.310077
-0.927545 0.0536711 0.102467
0.87492 -0.502067 0
-0.961241 -0.393708 0.0548133
0.960023 -0.50269 0.0565364
0.927595 -0.447736 0.102397
-0.897324 -0.0918611 0.145206
0.959389 -0.298177 0.0574326
-0.959607 -0.342737 0.0571246
0.875523 -0.3478 0
-0.71259 -0.322544 0.406459
-0.709595 -0.361921 0.410694
-0.867751 -0.235151 0.187029
0.867311 -0.387519 0.18765
0.865954 -0.435836 0.18957
0.894943 -0.595052 0.148573
-0.753294 -0.712974 0.348896
0.894393 -0.493088 0.149352
-0.540517 -0.168385 0.649807
-0.518788 -0.158261 0.680537
-0.514918 -0.185949 0.686009
-0.754539 -0.47053 0.347134
0.926712 -0.551362 0.103645
-0.829865 -0.653189 0.240608
0.92605 -0.498453 0.104581
0.927012 -0.604597 0.103221
-0.759066 -0.387896 0.340732
-0.731593 -0.415074 0.379585
0.958282 -0.719892 0.0589984
0.960039 -0.77808 0.0565139
0.853197 -0.720477 0
0.960847 -0.451 0.0553713
0.958846 -0.555589 0.0582011
-0.497047 -0.146554 0.711283
-0.493179 -0.174467 0.716753
0.858286 -0.663709 0
-0.958914 -0.66196 0.0581039
0.417177 -0.865486 0.190232
0.866563 -0.608768 0
0.926559 -0.712742 0.103862
0.867713 -0.55487 0
0.866294 -0.485052 0.189089
-0.783133 -0.44439 0.306697
-0.756893 -0.429101 0.343805
-0.861809 -0.626037 0.195431
0.675783 -0.894319 0.149455
0.369536 -0.785021 0
-0.74769 -0.549713 0.356821
-0.79539 -0.670329 0.289362
-0.791041 -0.708665 0.295512
-0.802564 -0.589817 0.279217
[...]
CELL_DATA 0
SCALARS CellEntityIds int 1
LOOKUP_TABLE default
