# vtk DataFile Version 2.0 
Created by AlgoHex
ASCII
DATASET UNSTRUCTURED_GRID
POINTS 7056 double
1 0 1
0 0 1
1 0 0
0 0 0
0.506024 0 1
0.518072 -0.173648 0.984808
0.53012 -0.173648 0.984808
0.542169 -0.173648 0.984808
0.554217 0 1
0.566265 -0.173648 0.984808
0.578313 -0.173648 0.984808
0.590361 -0.173648 0.984808
0.60241 -0.173648 0.984808
0.614458 -0.173648 0.984808
0 0 0.880289
0 0 0.89226
0 0 0.904231
0 0 0.916202
0 0 0.928173
0 0 0.940144
0 0 0.952115
0 0 0.964087
0 0 0.976058
0 0 0.988029
0 0 0.384954
0 0 0.397038
0 0 0.409122
0 0 0.421206
0 0 0.43329
0 0 0.445374
0 0 0.457458
0 0 0.469542
0 0 0.481626
0 0 0.493711
0 -0.0204216 0.13061
0 -0.0183427 0.142764
0 -0.0162637 0.154918
0 -0.0141848 0.167072
0 -0.0121058 0.179226
0 -0.0100268 0.191381
0 -0.00794786 0.203535
0 -0.0058689 0.215689
0 -0.00378994 0.227843
0 -0.00171097 0.239997
1 -0.0877259 0.497518
1 -0.0898572 0.509605
1 -0.0919885 0.521692
1 -0.0941197 0.53378
1 0 0.554274
1 0 0.566174
1 0 0.578073
1 0 0.589972
1 0 0.601872
1 0 0.613771
0 0 0.505813
0 0 0.517935
0 0 0.530057
0 0 0.54218
0 0 0.554302
0 -0.0983422 0.557726
0 -0.100426 0.569543
0 -0.10251 0.581361
0 -0.104593 0.593178
0 -0.106677 0.604995
1 0 0.625679
1 0 0.637736
1 0 0.649792
1 0 0.661849
1 0 0.673905
1 0 0.685962
1 0 0.698019
1 0 0.710075
1 0 0.722132
1 0 0.734188
1 0 0.746245
0.879518 0 1
0.891566 0 1
0.903614 0 1
0.915663 0 1
0.927711 0 1
0.939759 0 1
0.951807 0 1
0.963855 0 1
0.975904 0 1
0.987952 0 1
0.253012 0 0
0.26506 0 0
0.277108 0 0
0.289157 0 0
0.301205 0 0
0.313253 0 0
0.325301 0 0
0.337349 0 0
0.349398 0 0
0.361446 0 0
0.373494 0 0
0.13253 0 1
0.144578 0 1
0.156627 -0.173648 0.984808
0.168675 0 1
0.180723 -0.173648 0.984808
0.192771 0 1
0.204819 0 1
0.216867 -0.173648 0.984808
0.228916 0 1
0.240964 0 1
0.879518 0 0
0.891566 0 0
0.903614 0 0
0.915663 0 0
0.927711 0 0
0.939759 0 0
0.951807 0 0
0.963855 0 0
0.975904 0 0
0.987952 0 0
0 -0.108761 0.616817
0 -0.110853 0.628677
0 -0.112944 0.640537
0 -0.115035 0.652397
0 -0.117126 0.664256
0 -0.119218 0.676116
0 -0.121309 0.687976
0 -0.1234 0.699836
0 0 0.722633
0 0 0.734587
0 0 0.74654
0 0 0.252137
0 0 0.26421
0 0 0.276284
0 0 0.288357
0 0 0.300431
0 0 0.312504
0 0 0.324578
0 0 0.336651
0 0 0.348724
0 0 0.360798
0 0 0.372871
1 -0.0204148 0.13065
1 -0.0183362 0.142802
1 -0.0162576 0.154954
1 -0.014179 0.167106
1 -0.0121004 0.179258
1 -0.0100218 0.19141
1 -0.00794319 0.203562
1 -0.00586459 0.215714
1 -0.00378599 0.227866
1 -0.00170739 0.240018
0.626506 0 0
0.638554 0 0
0.650602 0 0
0.662651 0 0
0.674699 0 0
0.686747 0 0
0.698795 0 0
0.710843 0 0
0.722892 0 0
0.73494 0 0
0.746988 0 0
0.759036 -0.173648 0.984808
0.771084 -0.173648 0.984808
0.783133 -0.173648 0.984808
0.795181 -0.173648 0.984808
0.807229 -0.173648 0.984808
0.819277 -0.173648 0.984808
0.831325 -0.173648 0.984808
0.843373 -0.173648 0.984808
0.855422 -0.173648 0.984808
0.86747 -0.173648 0.984808
0.0120482 0 1
0.0240964 0 1
0.0361446 0 1
0.0481928 0 1
0.060241 0 1
0.0722892 0 1
0.0843373 0 1
0.0963855 0 1
0.108434 0 1
0.120482 0 1
0.626506 -0.173648 0.984808
0.638554 -0.173648 0.984808
0.650602 -0.173648 0.984808
0.662651 -0.173648 0.984808
0.674699 -0.173648 0.984808
0.686747 -0.173648 0.984808
0.698795 -0.173648 0.984808
0.710843 -0.173648 0.984808
0.722892 -0.173648 0.984808
0.73494 -0.173648 0.984808
0.746988 -0.173648 0.984808
1 0 0.385147
1 0 0.397315
1 0 0.409483
1 -0.0731874 0.415066
1 -0.0752608 0.426825
1 -0.0773343 0.438585
1 -0.0794077 0.450344
1 -0.0814811 0.462103
1 -0.0835546 0.473862
1 -0.085628 0.485621
0.506024 0 0
0.518072 0 0
0.53012 0 0
0.542169 0 0
0.554217 0 0
0.566265 0 0
0.578313 0 0
0.590361 0 0
0.60241 0 0
0.614458 0 0
1 -0.152868 0.866959
1 -0.154946 0.878744
1 -0.157024 0.890529
1 -0.159102 0.902314
1 -0.16118 0.914098
1 -0.163258 0.925883
1 -0.165336 0.937668
1 -0.167414 0.949453
1 -0.169492 0.961238
1 -0.17157 0.973023
1 0 0.0119724
1 0 0.0239448
1 0 0.0359172
1 0 0.0478897
1 0 0.0598621
1 0 0.0718345
1 0 0.0838069
1 0 0.0957793
1 0 0.107752
1 0 0.119724
0.253012 0 1
0.26506 0 1
0.277108 0 1
0.289157 0 1
0.301205 0 1
0.313253 0 1
0.325301 0 1
0.337349 0 1
0.349398 0 1
0.361446 0 1
0.373494 0 1
1 0 0.758479
1 0 0.770794
1 0 0.783109
1 -0.1381 0.783207
1 -0.140212 0.795183
1 -0.142324 0.80716
1 -0.144436 0.819137
1 -0.146548 0.831114
1 -0.14866 0.843091
1 -0.150772 0.855068
0 0 0.0119685
0 0 0.0239369
0 0 0.0359054
0 0 0.0478739
0 0 0.0598423
0 0 0.0718108
0 0 0.0837793
0 0 0.0957478
0 0 0.107716
0 0 0.119685
0 0 0.758649
0 0 0.770822
0 0 0.782995
0 0 0.795168
0 0 0.807341
0 0 0.819514
0 0 0.831686
0 0 0.843859
0 0 0.856032
0 0 0.868205
1 0 0.252158
1 0 0.264241
1 0 0.276325
1 0 0.288408
1 0 0.300492
1 0 0.312575
1 0 0.324659
1 0 0.336742
1 0 0.348826
1 0 0.360909
1 0 0.372992
0.759036 0 0
0.771084 0 0
0.783133 0 0
0.795181 0 0
0.807229 0 0
0.819277 0 0
0.831325 0 0
0.843373 0 0
0.855422 0 0
0.86747 0 0
0.13253 0 0
0.144578 0 0
0.156627 0 0
0.168675 0 0
0.180723 0 0
0.192771 0 0
0.204819 0 0
0.216867 0 0
0.228916 0 0
0.240964 0 0
0.385542 0 1
0.39759 0 1
0.409639 0 1
0.421687 0 1
0.433735 0 1
0.445783 0 1
0.457831 0 1
0.46988 0 1
0.481928 0 1
0.493976 0 1
0.0120482 0 0
0.0240964 0 0
0.0361446 0 0
0.0481928 0 0
0.060241 0 0
0.0722892 0 0
0.0843373 0 0
0.0963855 0 0
0.108434 0 0
0.120482 0 0
0.385542 0 0
0.39759 0 0
0.409639 0 0
0.421687 0 0
0.433735 0 0
0.445783 0 0
0.457831 0 0
0.46988 0 0
0.481928 0 0
0.493976 0 0
0.578313 -0.11306 0.641195
0.590361 -0.11517 0.653162
0.590361 -0.117257 0.665
0.590361 -0.119345 0.676838
0.60241 -0.115193 0.65329
0.60241 -0.11728 0.665129
0.60241 -0.119368 0.676967
0.60241 -0.121455 0.688805
0.60241 -0.123542 0.700644
0.60241 -0.12563 0.712482
0.614458 -0.117303 0.665257
0.614458 -0.11939 0.677095
0.614458 -0.121478 0.688934
0.614458 -0.123565 0.700772
0.614458 -0.125652 0.71261
0.614458 -0.12774 0.724449
0.626506 0 0.675639
0.626506 -0.119413 0.677224
0.626506 -0.1215 0.689062
0.626506 -0.123588 0.700901
0.626506 -0.125675 0.712739
0.626506 -0.127763 0.724577
0.638554 0 0.687652
0.638554 0 0.699766
0.638554 -0.12361 0.701029
0.638554 -0.125698 0.712868
0.650602 0 0.687551
0.650602 0 0.699665
0.650602 0 0.711779
0.650602 0 0.723893
0.662651 0 0.68745
0.662651 0 0.699564
0.662651 0 0.711678
0.674699 0 0.699463
0.674699 0 0.711574
0.686747 0 0.699361
0.578313 -0.115152 0.653059
0.590361 -0.113083 0.641323
0.614458 -0.115215 0.653419
0.638554 0 0.675538
0.746988 0 0.89251
0.759036 0 0.892546
0.759036 0 0.904549
0.771084 0 0.880578
0.771084 0 0.892581
0.771084 0 0.904584
0.783133 0 0.86861
0.783133 0 0.880613
0.783133 0 0.892616
0.783133 0 0.904619
0.795181 0 0.856642
0.795181 0 0.868645
0.795181 0 0.880648
0.795181 0 0.892651
0.795181 0 0.904654
0.795181 0 0.916658
0.807229 0 0.856677
0.807229 0 0.86868
0.807229 0 0.880683
0.807229 0 0.892687
0.807229 0 0.90469
0.807229 0 0.916693
0.819277 0 0.844709
0.819277 0 0.856712
0.819277 0 0.868715
0.819277 0 0.880719
0.819277 0 0.892722
0.819277 0 0.904725
0.819277 0 0.916728
0.831325 -0.144562 0.819849
0.819277 -0.0145727 0.082646
0.831325 -0.0145681 0.0826201
0.831325 -0.0166643 0.094508
0.831325 -0.0187605 0.106396
0.831325 0 0.120066
0.831325 0 0.132091
0.831325 0 0.144116
0.831325 0 0.156141
0.843373 -0.0145636 0.0825941
0.843373 -0.0166597 0.0944821
0.843373 -0.0187559 0.10637
0.843373 0 0.120071
0.843373 0 0.132096
0.843373 0 0.144121
0.855422 -0.014559 0.0825682
0.855422 -0.0166552 0.0944562
0.855422 -0.0187513 0.106344
0.855422 -0.0208475 0.118232
0.855422 0 0.132102
0.86747 -0.0166506 0.0944302
0.86747 -0.0187468 0.106318
0.86747 -0.0208429 0.118206
0.879518 -0.016646 0.0944043
0.879518 -0.0187422 0.106292
0.891566 -0.0166415 0.0943784
0.891566 -0.0187376 0.106266
0.46988 -0.0166627 0.0944988
0.481928 -0.0166743 0.0945645
0.46988 -0.0187596 0.106391
0.481928 -0.0187712 0.106457
0.481928 -0.0208681 0.118349
0.481928 -0.022965 0.130241
0.481928 -0.025062 0.142134
0.493976 -0.0166858 0.0946301
0.493976 -0.0187828 0.106522
0.493976 -0.0208797 0.118415
0.493976 -0.0229766 0.130307
0.493976 -0.0250735 0.142199
0.493976 -0.0271705 0.154091
0.493976 -0.0292674 0.165984
0.493976 -0.0313643 0.177876
0.506024 -0.0166974 0.0946958
0.506024 -0.0187943 0.106588
0.506024 -0.0208913 0.11848
0.506024 -0.0229882 0.130373
0.506024 -0.0250851 0.142265
0.506024 -0.0271821 0.154157
0.506024 -0.029279 0.166049
0.506024 -0.0313759 0.177942
0.506024 -0.0334728 0.189834
0.518072 0 0.0961575
0.518072 0 0.108235
0.518072 0 0.120313
0.518072 0 0.13239
0.518072 0 0.144468
0.518072 0 0.156545
0.518072 0 0.168623
0.53012 0 0.0961139
0.53012 0 0.108192
0.53012 0 0.120269
0.53012 0 0.132347
0.542169 0 0.0960704
0.542169 0 0.108148
0.650602 0 0.518861
0.650602 0 0.531001
0.662651 0 0.518828
0.662651 0 0.530968
0.662651 -0.0942936 0.534765
0.674699 0 0.518834
0.674699 0 0.53096
0.674699 -0.0942913 0.534752
0.674699 -0.0963701 0.546542
0.674699 -0.0984498 0.558336
0.686747 0 0.518846
0.686747 0 0.530973
0.686747 -0.0942891 0.53474
0.686747 -0.0963678 0.546529
0.686747 -0.0984466 0.558319
0.686747 -0.100526 0.570113
0.698795 0 0.518859
0.698795 0 0.530986
0.698795 -0.0942868 0.534727
0.698795 -0.0963656 0.546517
0.698795 -0.0984444 0.558306
0.710843 0 0.518872
0.710843 -0.0922059 0.522926
0.710843 -0.0942846 0.534715
0.710843 -0.0963634 0.546504
0.722892 0 0.518885
0.722892 -0.0922037 0.522913
0.722892 -0.0942824 0.534702
0.722892 -0.0963612 0.546492
0.73494 0 0.518898
0.73494 -0.0922015 0.5229
0.73494 -0.0942802 0.53469
0.746988 0 0.518911
0.746988 -0.0921993 0.522888
0.759036 0 0.518924
0.771084 0 0.518936
0.783133 0 0.506823
0.506024 0 0.784204
0.518072 0 0.760145
0.518072 0 0.772196
0.53012 -0.127817 0.724888
0.53012 0 0.748137
0.53012 0 0.760189
0.53012 0 0.772241
0.542169 -0.1236 0.700973
0.542169 -0.125702 0.712889
0.542169 -0.127803 0.724805
0.542169 -0.129904 0.736721
0.542169 -0.132005 0.748637
0.542169 0 0.772286
0.554217 -0.119383 0.677057
0.554217 -0.121485 0.688973
0.554217 -0.123586 0.70089
0.554217 -0.125687 0.712806
0.554217 -0.127788 0.724722
0.554217 -0.129889 0.736638
[...]
CELL_DATA 0
SCALARS CellEntityIds int 1
LOOKUP_TABLE default
