# vtk DataFile Version 2.0 
Created by AlgoHex
ASCII
DATASET UNSTRUCTURED_GRID
POINTS 7056 double
1 0 1
0 -0.173648 0.984808
1 0 0
0 0 0
1 0 0.625989
1 0 0.638104
1 0 0.65022
1 0 0.662336
1 0 0.674452
1 0 0.686568
0 -0.066866 0.379216
0 -0.0689636 0.391112
0 -0.0710613 0.403009
0 -0.073159 0.414905
0 -0.0752566 0.426802
0 0 0.445462
0 0 0.457328
0.698795 0 1
0.710843 0 1
0.722892 -0.173648 0.984808
0.73494 0 1
0.746988 0 1
0.759036 -0.173648 0.984808
1 0 0.493267
1 0 0.505326
1 0 0.517384
1 0 0.529443
0.313253 0 0
0.325301 0 0
0.337349 0 0
0.349398 0 0
0.361446 0 0
0.373494 0 0
0.0120481 -0.173648 0.984808
0.0240963 -0.173648 0.984808
0.0361444 -0.173648 0.984808
0.0481926 -0.173648 0.984808
0.0602407 -0.173648 0.984808
0.0722889 -0.173648 0.984808
0 -0.121338 0.688142
0 -0.123433 0.700023
0 -0.125528 0.711903
0 -0.127623 0.723784
0 -0.129717 0.735664
0 -0.131812 0.747545
1 -0.00112697 0.156422
1 -0.00626928 0.168178
1 -0.0114116 0.179933
1 -0.0169876 0.191636
1 0 0.312496
1 0 0.324696
1 0 0.336897
1 0 0.349098
1 0 0.361299
1 0 0.373499
0.0843371 -0.173648 0.984808
0.0963853 -0.173648 0.984808
0.108433 -0.173648 0.984808
0.120482 -0.173648 0.984808
0.13253 -0.173648 0.984808
0.144578 -0.173648 0.984808
1 -0.0117423 0.203926
1 -0.00637724 0.216191
1 -0.00101219 0.228455
1 -0.146754 0.916188
1 0 0.951359
1 0 0.963519
1 0 0.975679
1 0 0.98784
0.46988 0 1
0.481928 -0.173648 0.984808
0.493976 -0.173648 0.984808
0.506024 0 1
0.518072 0 1
0.53012 -0.173648 0.984808
0 -0.0543821 0.308416
0 -0.0564626 0.320215
0 -0.0585432 0.332015
0 -0.0606237 0.343814
0 -0.0627043 0.355613
0 -0.0647848 0.367413
0.626506 0 1
0.638554 0 1
0.650602 0 1
0.662651 0 1
0.674699 0 1
0.686747 0 1
1 -0.133944 0.759631
1 0 0.783236
1 0 0.795121
1 0 0.807005
1 0 0.818889
1 0 0.830774
1 0 0.842658
0.385542 0 1
0.39759 -0.173648 0.984808
0.409639 -0.173648 0.984808
0.421687 -0.173648 0.984808
0.433735 -0.173648 0.984808
0.445783 0 1
0.457831 0 1
1 0 0.240494
1 0 0.25248
1 0 0.264466
1 0 0.276453
1 0 0.288439
1 0 0.300425
0.771084 0 1
0.783133 0 1
0.795181 0 1
0.807229 0 1
0.819277 -0.173648 0.984808
0.831325 0 1
0.843374 0 1
0.156627 0 0
0.168675 0 0
0.180723 0 0
0.192771 0 0
0.204819 0 0
0.216867 0 0
0.228916 0 0
0.156626 0 1
0.168675 0 1
0.180723 0 1
0.192771 0 1
0.204819 0 1
0.216867 0 1
0.228916 0 1
1 -0.0121234 0.0829695
1 -0.0100262 0.0952301
1 -0.00792908 0.107491
1 -0.0058319 0.119751
1 -0.00373473 0.132012
1 -0.00163756 0.144273
0 0 0.541733
0 0 0.553774
0 0 0.565815
0 0 0.577857
0 0 0.589898
0 0 0.60194
0 0 0.613981
0.927711 0 1
0.939759 0 1
0.951807 0 1
0.963856 0 1
0.975904 0 1
0.987952 0 1
1 0 0.385674
1 0 0.397586
1 0 0.409498
1 0 0.42141
1 0 0.433322
1 0 0.445234
1 0 0.457146
0.0120482 0 0
0.0240964 0 0
0.0361446 0 0
0.0481928 0 0
0.060241 0 0
0.0722892 0 0
0 0 0.493463
0 0 0.505533
0 0 0.517602
0 0 0.529671
0.771084 0 0
0.783133 0 0
0.795181 0 0
0.807229 0 0
0.819277 0 0
0.831325 0 0
0.843373 0 0
0.385542 0 0
0.39759 0 0
0.409639 0 0
0.421687 0 0
0.433735 0 0
0.445783 0 0
0.457831 0 0
0.46988 0 0
0.481928 0 0
0.493976 0 0
0.506024 0 0
0.518072 0 0
0.53012 0 0
0 -0.133907 0.759426
0 -0.136003 0.771311
0 -0.138099 0.783197
0 0 0.807294
0 0 0.819242
0 0 0.83119
0 0 0.843139
0 -0.0121184 0.0829989
0 -0.0100265 0.0952288
0 -0.00793455 0.107459
0 -0.00584263 0.119689
0 -0.00375072 0.131919
0 -0.0016588 0.144148
0.0843373 0 0
0.0963855 0 0
0.108434 0 0
0.120482 0 0
0.13253 0 0
0.144578 0 0
0 0 0.0119336
0 0 0.0238671
0 0 0.0358007
0 0 0.0477342
0 0 0.0596678
0 0 0.0716014
0.626506 0 0
0.638554 0 0
0.650602 0 0
0.662651 0 0
0.674699 0 0
0.686747 0 0
0.542169 -0.173648 0.984808
0.554217 -0.173648 0.984808
0.566265 -0.173648 0.984808
0.578313 -0.173648 0.984808
0.590361 -0.173648 0.984808
0.60241 -0.173648 0.984808
0.614458 -0.173648 0.984808
0 -0.0271185 0.153797
0 -0.0292186 0.165707
0 -0.0313187 0.177617
0 -0.0334188 0.189528
0 -0.0355189 0.201438
0 0 0.216635
0 0 0.228694
1 0 0.854664
1 0 0.866721
1 0 0.878778
1 0 0.890834
1 0 0.902891
1 0 0.914948
1 0 0.0119819
1 0 0.0239638
1 0 0.0359457
1 0 0.0479276
1 0 0.0599095
1 0 0.0718914
0 -0.00902185 0.926846
0 -0.116261 0.944577
0 -0.140235 0.953885
0 -0.151373 0.964193
0 -0.162511 0.9745
0 0 0.240789
0 -0.0439111 0.249032
0 -0.0460066 0.260917
0 -0.0481022 0.272801
0 -0.0501978 0.284686
0 -0.0522934 0.29657
1 0 0.698685
1 0 0.710803
1 0 0.722921
1 0 0.73504
1 0 0.747158
1 -0.131846 0.747738
0 0 0.626085
0 0 0.638196
0 0 0.650308
0 0 0.662419
0 0 0.674531
0 0 0.686642
0.313253 -0.173648 0.984808
0.325301 -0.173648 0.984808
0.337349 -0.173648 0.984808
0.349398 -0.173648 0.984808
0.361446 0 1
0.373494 0 1
0.698795 0 0
0.710843 0 0
0.722892 0 0
0.73494 0 0
0.746988 0 0
0.759036 0 0
0.240964 0 0
0.253012 0 0
0.26506 0 0
0.277108 0 0
0.289157 0 0
0.301205 0 0
1 -0.062824 0.937173
1 0 0.541502
1 0 0.553565
1 0 0.565628
1 0 0.577691
1 0 0.589754
1 0 0.601816
1 0 0.613879
0.855422 0 1
0.86747 0 1
0.879518 0 1
0.891566 0 1
0.903615 0 1
0.915663 0 1
0 0 0.85512
0 0 0.867113
0 0 0.879105
0 0 0.891098
0 0 0.90309
0 0 0.915083
0.927711 0 0
0.939759 0 0
0.951807 0 0
0.963855 0 0
0.975904 0 0
0.987952 0 0
0 -0.0672883 0.464341
0 -0.0480832 0.479001
0 -0.0814189 0.936282
0.240964 0 1
0.253012 0 1
0.26506 0 1
0.277108 0 1
0.289157 0 1
0.301205 0 1
1 -0.0674199 0.464361
1 -0.0485995 0.478906
0.855422 0 0
0.86747 0 0
0.879518 0 0
0.891566 0 0
0.903614 0 0
0.915663 0 0
0.542169 0 0
0.554217 0 0
0.566265 0 0
0.578313 0 0
0.590361 0 0
0.60241 0 0
0.614458 0 0
0.361446 0 0.289239
0.373494 0 0.277136
0.373494 0 0.289232
0.385542 0 0.265032
0.385542 0 0.277128
0.385542 0 0.289224
0.39759 0 0.265024
0.39759 0 0.27712
0.39759 0 0.289216
0.240964 -0.029212 0.165669
0.253012 -0.0292294 0.165768
0.26506 -0.0292469 0.165867
0.26506 -0.0313648 0.177879
0.277108 -0.0271464 0.153955
0.277108 -0.0292643 0.165966
0.277108 -0.0313823 0.177978
0.289157 -0.0271639 0.154054
0.289157 -0.0292818 0.166065
0.26506 -0.027129 0.153856
0.506024 -0.0543962 0.308496
0.506024 -0.0565082 0.320474
0.518072 -0.054398 0.308506
0.518072 -0.0565099 0.320484
0.518072 -0.0586219 0.332461
0.53012 -0.0543997 0.308516
0.53012 -0.0565117 0.320494
0.53012 -0.0586236 0.332471
0.542169 0 0.325385
0.554217 0 0.325337
0.566265 0 0.325289
0.493976 -0.0522825 0.296509
0.493976 -0.0543945 0.308486
0.493976 -0.0565064 0.320464
0.493976 -0.0586184 0.332441
0.493976 -0.0607303 0.344419
0.506024 -0.0586201 0.332451
0.506024 -0.0607321 0.344429
0.542169 0 0.337556
0.0963855 0 0.80806
0.108434 0 0.796182
0.108434 0 0.808123
0.120482 0 0.796245
0.120482 0 0.808186
0.120482 0 0.820127
0.13253 0 0.784366
0.13253 0 0.796308
0.13253 0 0.808249
0.13253 0 0.82019
0.144578 -0.13619 0.772371
0.144578 -0.138261 0.784115
0.144578 -0.140331 0.795858
0.144578 -0.142402 0.807601
0.156626 -0.138225 0.783914
0.156626 -0.140296 0.795657
0.156626 -0.142366 0.8074
0.46988 0 0.421993
0.46988 0 0.434076
0.46988 0 0.446168
0.481928 0 0.422067
0.481928 0 0.434158
0.481928 0 0.446249
0.481928 0 0.458341
0.481928 -0.0816845 0.463256
0.493976 -0.0837846 0.475166
0.493976 -0.0858766 0.487031
0.650602 -0.123627 0.701124
0.650602 0 0.724053
0.662651 -0.123618 0.701073
0.662651 -0.125731 0.713056
0.662651 0 0.736095
0.662651 0 0.748106
0.662651 0 0.760163
0.662651 0 0.77222
0.674699 -0.123609 0.701022
0.674699 -0.125722 0.713005
0.674699 0 0.736136
0.674699 0 0.748137
0.686747 -0.1236 0.700971
0.686747 -0.125713 0.712953
0.686747 -0.127827 0.724942
0.698795 -0.123592 0.700926
0.650602 0 0.736091
0.373494 -0.0271441 0.153942
0.385542 -0.0271437 0.153939
0.385542 0 0.168397
0.385542 0 0.180469
0.39759 0 0.16833
0.39759 0 0.180402
0.39759 0 0.192474
0.409639 0 0.168263
0.409639 0 0.180335
0.421687 0 0.168196
0.421687 0 0.180268
0.433735 0 0.168129
0.445783 0 0.168062
0.180723 -0.140304 0.795703
0.180723 -0.142367 0.807401
0.192771 0 0.771956
0.192771 0 0.784066
0.192771 0 0.796177
0.192771 -0.14035 0.795962
0.192771 -0.142412 0.80766
0.204819 0 0.784138
0.204819 0 0.796248
0.204819 0 0.808359
0.204819 -0.142458 0.807919
0.204819 -0.144521 0.819617
0.216867 0 0.80843
0.216867 0 0.820541
0.216867 -0.144566 0.819876
0.228916 0 0.832723
0.0843373 -0.0732774 0.415577
0.0963855 -0.0732867 0.41563
0.108434 0 0.410008
0.108434 -0.073296 0.415682
0.120482 0 0.397838
0.120482 0 0.409958
0.120482 0 0.422078
0.120482 0 0.434198
0.13253 0 0.385667
0.13253 0 0.397787
0.13253 0 0.409907
0.13253 0 0.422027
0.13253 0 0.434147
0.144578 0 0.373497
0.144578 0 0.385617
0.144578 0 0.397737
0.144578 0 0.409857
0.144578 0 0.421977
0.144578 0 0.434097
0.156627 0 0.409807
0.156627 0 0.421927
0.156627 0 0.434047
0.108434 -0.0753896 0.427556
0.156627 0 0.446167
0.686747 0 0.216257
0.698795 0 0.228301
0.698795 0 0.24046
0.698795 -0.0438872 0.248896
0.710843 0 0.240394
0.710843 0 0.252719
0.710843 -0.0459635 0.260672
0.710843 -0.0480216 0.272344
0.710843 -0.0500809 0.284023
0.722892 0 0.240437
0.722892 0 0.252652
0.722892 -0.0459818 0.260776
0.722892 -0.0480399 0.272448
0.73494 0 0.252585
0.73494 -0.0460001 0.26088
0.746988 0 0.252572
0.710843 0 0.228394
0.0843373 0 0.819895
0.0963855 0 0.819974
0.0963855 0 0.831816
0.0963855 0 0.843659
0.0963855 0 0.855502
0.108434 0 0.820052
0.108434 0 0.831895
0.108434 0 0.843738
0.108434 0 0.855581
0.108434 0 0.867423
0.108434 0 0.879266
0.108434 0 0.891109
0.120482 0 0.831974
0.120482 0 0.843816
0.120482 0 0.855659
0.120482 0 0.867502
0.120482 0 0.879345
0.13253 0 0.832052
0.13253 0 0.843895
0.13253 0 0.855738
0.144578 -0.144473 0.819345
0.144578 -0.146543 0.831087
0.156626 -0.144437 0.819144
0.506024 -0.092145 0.52258
0.518072 -0.096317 0.546241
0.518072 -0.102597 0.581855
0.53012 -0.100489 0.569901
0.46988 -0.102655 0.582184
0.481928 -0.0963605 0.546488
0.481928 -0.0984538 0.558359
0.481928 -0.100547 0.57023
0.481928 -0.10264 0.582102
0.493976 -0.0900663 0.510791
0.493976 -0.0921595 0.522663
0.493976 -0.0942528 0.534534
0.493976 -0.096346 0.546405
0.493976 -0.0984392 0.558277
0.493976 -0.100532 0.570148
0.493976 -0.102626 0.582019
0.506024 -0.0942383 0.534452
[...]
CELL_DATA 0
SCALARS CellEntityIds int 1
LOOKUP_TABLE default
