# vtk DataFile Version 2.0 
Created by AlgoHex
ASCII
DATASET UNSTRUCTURED_GRID
POINTS 56 double
-0.538213 0 -0.461787
0 0.26195 -0.73805
0 -1 0
-0.216667 0.216667 0.566667
0.566667 -0.216667 -0.216667
-0.47848 0.13661 -0.38491
-0.486902 -0.277485 -0.235613
-0.524936 0.0267252 -0.448339
-0.51166 0.0534504 -0.43489
-0.498383 0.0801756 -0.421442
-0.489851 0.101248 -0.408901
-0.484166 0.118929 -0.396905
-0.461435 0.177072 -0.361493
-0.432847 0.215335 -0.351819
-0.404258 0.253598 -0.342144
-0.375669 0.291861 -0.33247
-0.300493 0.358334 -0.341172
0 -0.633083 -0.366917
0.0494804 0.8 0.15052
0 0.659921 0.340079
0.0708829 -0.8 0.129117
0 -0.777039 0.222961
0 -0.738547 0.261453
0 -0.700056 0.299944
0 -0.661564 0.338436
0 -0.623072 0.376928
-0.141297 -0.8 -0.0587031
0.0882983 -0.911702 0
0.176597 -0.823403 0
-0.118608 -0.621972 0.25942
-0.786808 -0.198018 0.015174
0.152221 0.46011 -0.38767
0.196672 -0.586332 -0.216997
0.0491679 -0.621395 -0.329437
0.0983358 -0.609707 -0.291957
0.147504 -0.59802 -0.254477
-0.717672 -0.217121 0.0652075
-0.118608 -0.660463 0.220929
0.560262 0.197373 -0.242365
-0.763669 -0.203727 0.0326037
-0.74067 -0.210424 0.0489056
0.122244 0.640489 -0.237267
0.29561 -0.273847 0.430543
0.369686 -0.185839 0.444474
-0.811765 0 0.188235
-0.118608 -0.58348 0.297912
-0.125658 -0.546407 0.327935
-0.133039 -0.5094 0.357561
-0.140421 -0.472393 0.387186
-0.147802 -0.435386 0.416811
0.662527 0.189865 -0.147609
0.210695 -0.371203 -0.418103
-0.122866 -0.69624 0.180895
-0.141291 -0.799964 0.0587449
-0.135149 -0.76539 0.0994615
-0.129007 -0.730815 0.140178

CELLS 0 0

CELL_TYPES 0

CELL_DATA 0
SCALARS CellEntityIds int 1
LOOKUP_TABLE default
