# vtk DataFile Version 2.0 
Created by AlgoHex
ASCII
DATASET UNSTRUCTURED_GRID
POINTS 175 double
-0.524281 -0.475719 0
0.494708 0.505292 0
-0.438474 -0.359558 -0.201968
0 0 1
0.389228 0.40781 0.202962
0 0 -1
0.278806 0.340774 0.38042
0.234699 0.162759 0.602541
0.255555 0.169398 0.575047
0.427498 0.440188 0.132314
0.438743 0.451739 0.109518
0.449988 0.463291 0.0867211
0.461174 0.473878 0.0649481
-0.0082381 0.862178 0.129583
0.483639 0.494664 0.0216973
-0.500337 -0.44926 -0.0504028
-0.48842 -0.43584 -0.0757397
0.143469 0.0858977 0.770633
0.161046 0.089995 0.748959
0.178608 0.0998309 0.721561
-0.161682 -0.157891 0.680427
-0.195684 -0.353288 -0.451028
-0.437128 -0.335515 -0.227357
-0.43458 -0.31235 -0.25307
-0.436673 -0.28408 -0.279247
-0.468621 -0.223319 -0.30806
-0.114474 -0.499795 -0.385731
-0.135453 -0.463795 -0.400752
-0.159884 -0.425393 -0.414723
0.392432 0.19323 0.414338
0.123313 0.022014 0.854673
0.0808594 0.13449 -0.78465
0.000951166 0.133268 -0.86578
-0.512254 -0.46268 -0.0250658
-0.108187 0 -0.891813
-0.476101 -0.422726 -0.101174
-0.46642 -0.407463 -0.126118
-0.457038 -0.391925 -0.151038
-0.447506 -0.376211 -0.176282
-0.405435 -0.30341 0.291155
0.193782 0.116118 0.6901
0.202758 0.136777 0.660464
0.210955 0.158192 0.630853
-0.216436 -0.313706 -0.469858
-0.228324 -0.279852 -0.491824
-0.228349 -0.255979 -0.515672
-0.194822 -0.189926 -0.615251
-0.179231 -0.180643 -0.640126
-0.164002 -0.172384 -0.663614
-0.0870625 -0.137128 -0.775809
-0.133036 -0.0149761 0.851988
0.328351 0.207435 0.464214
0.355482 0.205969 0.438549
0.275967 0.176979 0.547054
0.296335 0.184701 0.518964
0.313071 0.195368 0.49156
0.126242 0.0876887 0.786069
0.335199 0.362703 0.302098
0.348122 0.375302 0.276576
0.147339 0.177982 -0.67468
-0.223111 -0.237021 -0.539868
0.290411 0.355546 0.354043
0.318557 0.353647 0.327796
0.362628 0.386181 0.251191
0.376621 0.396414 0.226965
0.335211 0.377218 -0.287571
-0.216367 -0.21941 -0.564223
-0.205594 -0.204668 -0.589737
-0.135276 -0.0883279 0.776396
-0.438723 -0.3825 0.178777
0.404142 0.425043 -0.170815
-0.0924612 -0.152491 -0.755048
-0.147914 -0.164626 -0.68746
-0.129554 -0.158612 -0.711834
-0.110153 -0.15588 -0.733967
0.401835 0.419207 0.178958
0.415974 0.428837 0.155189
0.0898758 -0.456558 -0.453567
0.0812698 -0.439519 -0.479211
0.107612 -0.0956597 0.796728
0.566179 -0.274113 -0.159708
0.118121 -0.161547 0.720332
-0.254068 0.0607591 -0.685173
-0.228433 0.0615427 -0.710024
0.032841 -0.315485 0.651674
-0.108316 0.167443 -0.724241
-0.307084 0.201 -0.491917
-0.654278 0.175522 0.170201
-0.305095 0.0583374 -0.636568
-0.279587 0.0599954 -0.660418
-0.190333 0.162335 -0.647331
-0.173593 0.0702885 -0.756118
0.546593 -0.231539 0.221868
0.575692 -0.160321 0.263987
-0.20214 0.0643702 -0.73349
0.451092 -0.0689003 0.480007
0.475203 -0.0741158 0.450681
0.0546913 -0.132389 0.81292
0.171751 -0.477165 -0.351084
-0.238981 0.171729 -0.58929
0.263647 -0.160337 0.576017
-0.143066 0.0801901 -0.776744
-0.106516 0.0992497 -0.794234
-0.0275838 0.319687 -0.652729
0.0618649 -0.439133 0.499002
-0.107894 0.523887 0.368219
0.184448 -0.0609267 0.754625
0.0774082 -0.420405 -0.502187
0.0718674 -0.401964 -0.526169
0.0687719 -0.382628 -0.5486
0.215152 -0.0573839 0.727464
0.502064 -0.299447 0.19849
0.209716 -0.15328 0.637004
-0.0471267 0.481564 -0.471309
-0.774649 0.0528164 0.172535
0.243999 -0.0551838 0.700817
-0.681007 0.147988 0.171005
-0.284972 0.186208 -0.52882
-0.262133 0.179208 -0.558659
0.288704 -0.171807 0.539489
0.0640108 -0.342125 -0.593864
0.350932 -0.0583216 0.590746
0.588999 -0.255221 -0.15578
0.609062 -0.236811 -0.154127
-0.0630014 0.112591 -0.824408
-0.629789 0.198994 0.171218
-0.0554746 0.272719 0.671807
0.0637789 -0.321489 -0.614732
0.298841 -0.0553423 0.645816
0.629077 -0.218429 -0.152493
0.649092 -0.200048 -0.15086
-0.0408735 0.182047 -0.777079
0.498507 -0.0796399 0.421853
-0.0760283 0.174631 -0.74934
0.103998 -0.471328 -0.424674
0.324493 -0.0579645 0.617542
0.775181 -0.0585016 -0.166317
0.133007 -0.476837 -0.390155
-0.0723566 0.436082 -0.491561
0.313447 -0.183382 0.50317
-0.214856 0.166022 -0.619122
0.753733 -0.085113 -0.161154
0.151987 -0.0686184 0.779395
0.288695 -0.580151 -0.131154
-0.136817 0.165834 -0.697349
-0.163415 0.164718 -0.671867
-0.328189 0.224888 -0.446923
-0.606271 0.219724 0.174005
0.663225 -0.0528969 -0.283878
0.680342 -0.0272197 -0.292438
-0.148849 0.545556 0.305595
0.40191 -0.0628963 0.535194
0.425579 -0.0683959 0.506025
-0.751796 0.0771322 0.171072
-0.730008 0.0984493 0.171543
0.337384 -0.206468 0.456148
0.0422218 -0.192721 0.765057
0.0817075 -0.176734 0.741559
0.236989 -0.154797 0.608214
0.180808 -0.154022 0.665169
0.149863 -0.157581 0.692556
0.541141 -0.10203 0.356829
-0.581198 0.244534 0.174268
0.669399 -0.179999 -0.150602
0.689828 -0.159246 -0.150925
0.710878 -0.137784 -0.151338
0.732286 -0.111724 -0.15599
-0.707531 0.122304 0.170164
-0.552977 0.26998 0.177043
0.359853 -0.255106 0.385041
0.0660097 -0.362627 -0.571363
0.377544 -0.0586409 0.563815
-0.0805823 -0.210216 0.471933
0.139734 0.107051 -0.482759
-0.0842167 -0.156526 0.452686

CELLS 0 0

CELL_TYPES 0

CELL_DATA 0
SCALARS CellEntityIds int 1
LOOKUP_TABLE default
