# vtk DataFile Version 2.0 
Created by AlgoHex
ASCII
DATASET UNSTRUCTURED_GRID
POINTS 61 double
0.25 1.15451 -1.21353
-1.15451 1.21353 -0.25
-0.809017 0.5 -1.30902
-0.404508 -0.75 -1.46353
1.37534 -0.635392 0.306131
0.872678 0.872678 0.872678
0.269697 -0.833318 1.51502
-1.56827 -0.130292 -0.919475
-1.38072 -0.146669 -1.09065
-1.26206 -0.220004 -1.13597
1.15451 1.21353 0.17385
1.15451 1.21353 0.0976995
-1.22703 1.02365 0.0281326
-0.666657 1.51503 -0.269656
0.742081 -1.61803 0
0.0212934 1.15451 -1.21353
-0.202254 0.875 -1.54078
-1.27316 -0.902893 0.0648586
-1.17264 1.16606 -0.180467
-1.18171 1.14232 -0.1457
0.423829 -0.881299 1.31291
0.471334 -1.2913 -0.855399
0.33456 -1.52505 -0.103111
-0.411282 -0.102551 -1.46094
-1.55939 -0.153537 -0.208977
-1.31394 -0.796126 -0.203793
-1.33619 -0.737868 -0.117877
-1.56408 -0.141263 -0.511513
0.598616 -1.53361 0.221028
0.532696 -1.50534 0.295049
0.466129 -1.47625 0.371199
-0.0365629 -1.40958 0.545734
-1.31108 -0.483647 -0.699882
-0.590393 -0.143694 -1.39252
-1.5185 -0.260583 -0.701936
-0.488512 -1.56177 0.147312
-0.438796 -1.52912 0.232768
-0.389079 -1.49648 0.318224
-1.50074 -0.307074 -0.32451
-0.291102 0.929911 -1.39702
-0.749985 1.46353 -0.404484
-0.722209 1.4807 -0.359541
-0.63888 1.5322 -0.224713
-0.611104 1.54937 -0.179771
-0.680815 0.985483 -0.951736
-1.55939 -0.153537 -0.395867
-1.37543 -0.635158 0.10559
-1.51291 -0.275213 -0.56903
-1.43122 -0.489078 -0.315909
-0.588051 -0.253557 -0.173494
-0.711408 -0.250058 -0.0381978
-0.729498 -0.0912836 -1.03742
-0.848045 -0.118924 -0.350089
-0.596156 -0.159661 -0.284533
-0.665578 0.0544295 -0.990694
-0.102736 -1.0059 -0.0801973
-0.513214 -0.17925 -0.65743
-0.0257247 -0.437927 -0.282859
-0.259589 -0.644684 -0.246157
-0.224458 -0.524393 -0.0616121
-0.32037 -0.536208 0.0709742

CELLS 0 0

CELL_TYPES 0

CELL_DATA 0
SCALARS CellEntityIds int 1
LOOKUP_TABLE default
