# vtk DataFile Version 2.0 
Created by AlgoHex
ASCII
DATASET UNSTRUCTURED_GRID
POINTS 490 double
-0.125 1.07725 -1.41578
-0.355739 -1.21986 1.04244
1.54078 -0.202254 -0.875
-1.53066 0.228743 0.575468
-0.164868 1.10189 -1.35127
-0.144934 1.08957 -1.38353
0.726595 -0.55094 -1.3405
0.386603 0.761066 -1.47036
-0.0610634 1.03774 1.51923
-0.40631 -1.1278 1.08392
-0.274989 -1.20521 1.08079
1.57293 -0.118089 0.927017
-0.184802 1.11421 -1.31902
-0.244605 1.15117 -1.22225
-0.224671 1.13885 -1.25451
-0.204737 1.12653 -1.28676
-0.271377 1.16772 -1.17894
1.61803 0 0.747795
1.38905 0.599479 -0.629502
-1.50534 0.295028 -0.817663
0.029021 -1.20851 1.07215
0.0596608 -1.22616 1.02594
0.0462948 -0.64492 1.60035
-1.25533 0.949567 0.413135
0.231975 1.61803 0
0.943688 -1.58323 -0.091115
-0.93424 1.61803 0
-0.868479 1.61803 0
-0.802719 1.61803 0
-0.122127 1.07548 1.42043
-0.440496 -1.41236 0.538468
-0.351685 -1.39069 0.595198
-0.785693 -1.48558 -0.346757
-0.752589 -1.46513 -0.40032
0.793175 -1.49021 -0.33465
-1.57323 0.117307 -0.9275
-1.36477 -0.156523 1.09674
0.326938 1.20206 1.08904
0.360102 1.22256 1.03538
1.16463 0.280216 -1.17318
-0.23921 1.14784 1.23098
-0.572551 -1.4248 0.505893
-0.506524 -1.41858 0.52218
1.61803 0 -0.105939
-0.498126 1.61803 0
-0.43281 1.61803 0
-0.367495 1.61803 0
-0.302179 1.61803 0
-1.40407 -0.560152 0.653807
-0.71798 -1.44374 -0.456318
-0.683244 -1.42227 -0.512523
-0.648507 -1.4008 -0.568727
-0.34749 -1.21476 -1.05578
-0.315922 -1.19525 -1.10686
-0.284355 -1.17574 -1.15794
-0.252787 -1.15623 -1.20902
0.300652 1.61803 0
0.369871 1.61803 0
0.43909 1.61803 0
0.393882 1.24343 0.980719
0.428166 1.26462 0.925247
0.496733 1.307 0.814303
-1.14075 -0.294979 1.18231
0.887376 -1.54843 -0.18223
-0.0966974 -1.34334 0.71916
0.964566 -1.59613 0.0573338
-0.47781 -1.2953 -0.844921
-0.444948 -1.27499 -0.898093
-0.412086 -1.25468 -0.951265
-0.379224 -1.23437 -1.00444
-0.851415 1.55536 -0.164093
-0.845467 1.52253 -0.25004
-0.814506 1.50339 -0.300136
-0.783545 1.48426 -0.350232
-0.613923 -1.37943 -0.624685
-0.579658 -1.35825 -0.680128
-0.545393 -1.33707 -0.73557
-0.848726 -0.475459 -1.29385
1.47334 -0.37882 0.0461263
-0.217083 1.16773 1.1789
-0.535474 1.40062 0.569205
-0.486788 1.40545 0.556553
-0.438102 1.41028 0.543901
-0.194964 -0.583763 -1.54356
-0.176841 0.693529 -1.55049
-0.127149 0.735638 -1.56947
-1.13734 0.977772 0.502927
-0.874116 1.31146 -0.43246
-0.846233 1.28688 -0.484917
0.901309 -0.703239 1.01349
-1.12051 0.420871 -1.07665
-1.52862 -0.234099 0.490317
-0.566112 -1.43452 -0.480454
0.596291 1.36853 0.653214
0.0865982 0.220352 1.58496
0.138884 -0.568581 1.56498
0.172767 0.186935 1.55204
-0.427126 -0.393146 -1.45489
-1.06857 0.752411 -0.797054
-1.24584 0.522678 -0.849517
1.51551 -0.153577 0.948949
1.11311 -0.403488 1.10144
1.16353 -0.373079 1.08143
0.157661 -0.751267 1.55781
0.385726 -0.912022 1.32029
0.391892 -1.01346 1.21268
-0.0217087 -1.40907 -0.547082
0.0586059 -0.825205 1.59565
0.111476 -0.788512 1.57545
0.203846 -0.714022 1.54017
-0.427349 1.50827 0.287362
0.075569 1.23627 0.999465
1.20915 -0.346663 1.06222
1.0474 -0.150381 1.21796
1.09769 -0.0766755 1.19875
1.14798 -0.00297033 1.17954
0.24469 1.33627 0.737672
-0.0512399 1.5686 0.129412
1.25478 -0.320247 1.04301
-0.503901 -1.57245 -0.119334
-0.426321 -1.57813 -0.104481
-1.51842 0.151178 -0.948434
-1.01772 1.39428 -0.206036
-0.989747 1.37983 -0.248455
-0.961774 1.36539 -0.290874
-1.45617 0.335691 -0.826177
-1.40699 0.376355 -0.834692
-0.0922848 1.36012 0.675228
1.05582 -1.08623 0.475983
0.0390622 -1.57734 -0.106533
-0.234181 -1.32767 -0.760179
0.114863 -1.58511 -0.086192
0.829331 -0.790363 0.99834
1.39315 0.588746 -0.473223
-1.19093 0.577511 -0.849589
0.498491 0.436524 1.42763
0.552354 0.412772 1.40705
-0.693957 0.698769 -1.22531
-0.533732 1.04608 -1.03822
1.1777 -0.49355 0.946781
1.22322 -0.458507 0.936308
1.36506 -0.35871 0.894267
1.41533 -0.328281 0.874419
1.15935 -1.10169 0.356992
0.251336 -1.58598 -0.0839286
-1.05886 -0.178701 1.21359
0.748897 -0.634982 -1.23416
-0.0454813 0.26497 -1.60066
-0.109559 1.33114 0.751101
1.21544 -1.054 0.21417
1.06074 -0.435195 1.1221
-0.415147 0.547468 -1.45946
-0.366269 0.573074 -1.47813
-0.31739 0.598681 -1.4968
-1.35389 0.425044 -0.839104
-1.11277 1.00289 -0.50238
1.52969 -0.231291 -0.662532
-1.25307 -0.0202811 1.1394
1.14868 -1.22879 -0.00809466
0.717036 0.305393 1.34415
0.770437 0.283623 1.32375
0.830691 -0.30626 1.30074
-0.270066 0.624688 -1.51488
-0.142417 1.25255 0.95686
-0.328557 1.40952 0.545892
0.514116 -1.12846 0.975457
-0.515358 0.867592 -1.23508
-0.439009 0.980805 -1.19822
-0.419863 0.916847 -1.28132
-0.786956 1.24211 -0.588971
-0.752679 1.23022 -0.635132
0.252304 -0.680903 1.52166
-0.636825 -1.56981 -0.126254
-0.573739 -1.56981 -0.126254
-0.532647 -0.339493 -1.41458
-0.479959 -0.365811 -1.43471
0.274521 -1.20238 -1.08819
-0.505158 1.0187 -1.09418
-0.747065 -0.21164 -1.33268
-0.270345 1.40545 0.556553
-0.0761831 -1.13393 -1.2674
-1.06852 0.117888 1.2099
-0.247521 1.50992 0.283051
-0.073345 -1.2293 -1.01772
-0.0483985 -1.20904 -1.07077
-0.0234521 -1.18877 -1.12382
-0.292799 -1.26585 -0.922025
0.423875 -1.04275 1.15141
0.282042 1.25076 0.961524
0.551742 -1.13885 0.927446
0.589369 -1.14923 0.879436
0.613716 -0.446811 1.38362
0.100588 -1.44769 -0.445976
0.216995 0.166552 1.53515
0.265421 0.130894 1.51665
0.108287 1.25585 0.94822
0.93104 0.166254 1.26241
0.99442 -0.207103 1.2382
-0.00144574 1.16756 1.17936
-0.485641 1.5097 0.283625
0.230189 1.50434 0.297664
0.445495 -1.48437 -0.349948
1.32082 0.778113 0.245776
0.56801 -0.752393 1.29763
0.62285 -0.719359 1.27583
-0.169082 -1.1892 -1.12271
0.0428141 -1.32617 -0.764116
0.0712023 -1.30766 -0.812579
0.0995904 -1.28915 -0.861041
0.341653 -1.61803 0
0.876884 0.230567 1.28309
0.556989 -1.58191 -0.0945692
1.33507 -0.740796 -0.346017
-1.43782 0.471794 -0.0376278
-0.382173 1.57024 0.125131
0.529991 1.32755 0.76049
0.563141 1.34804 0.706852
0.405456 -1.61803 0
0.46926 -1.61803 0
0.277849 -1.61803 0
-0.863203 -0.0410872 -1.28832
-0.826873 0.23615 -1.3022
0.1465 -1.54459 -0.192291
0.383289 -1.58774 -0.0793066
0.319485 -1.58774 -0.0793066
0.144065 -1.25135 -0.960001
-0.835154 1.55569 0.163208
-0.780603 1.5592 0.15404
0.0283846 1.09681 1.36458
-0.671502 1.5662 0.135705
1.00888 -0.466382 1.14277
-0.097361 1.09404 1.37184
-0.0733822 1.11242 1.32372
0.617939 -1.48803 -0.340348
0.236222 -1.21143 -1.0645
-0.471612 0.473949 1.43789
0.917808 -1.33475 0.365476
0.64253 -1.54617 -0.188148
0.0779819 -1.14844 -1.22941
0.113936 -1.13725 -1.25872
0.14989 -1.12605 -1.28802
-0.433682 -1.51065 -0.281132
-0.364867 -1.51021 -0.282287
-0.356765 -1.57892 -0.102407
-1.29717 0.84002 0.167365
0.622575 -1.17058 0.824876
-0.0228462 -1.34136 0.724343
-0.289434 -1.57809 -0.104572
-0.424143 -1.35218 -0.696007
-0.027934 -1.57569 -0.110869
-0.267256 -1.34939 -0.703316
1.2665 -0.427701 0.923829
-0.933801 1.35094 -0.333293
-1.27465 0.321856 -1.02153
1.25422 -0.95248 0.0883623
-0.183411 1.5102 0.282313
0.0803308 1.13429 1.26647
0.112424 1.15412 1.21454
-0.496767 1.56845 0.129808
-0.440428 1.56945 0.12719
0.893698 -0.553563 1.17077
-1.00364 0.976448 0.63795
-0.0494033 1.1308 1.2756
-0.0254245 1.14918 1.22748
-0.962733 0.527166 -1.12814
0.966868 -0.640296 1.01087
1.02302 -0.602954 0.992065
1.07916 -0.565611 0.97326
1.13061 -0.531592 0.955835
1.35672 -0.25704 1.00428
0.98765 -1.35608 0.274303
1.46093 -0.188432 0.968675
-0.529703 -1.41409 -0.533944
-0.493136 -1.39375 -0.587176
-0.381078 -1.45135 -0.436392
0.0168004 -1.34995 -0.701842
-0.458713 -1.37263 -0.642468
0.360667 -1.55726 -0.159096
-0.717252 0.271191 -1.34407
-0.667409 0.339375 -1.36311
-1.23547 -1.00156 -0.148151
-0.121336 1.5125 0.276289
-0.585335 -0.313174 -1.39446
0.876293 -1.58323 -0.091115
0.00668576 -1.1715 -1.16903
-0.0437756 -1.11765 -1.31004
0.748051 -1.58263 -0.0926815
0.0222104 -1.08876 -1.38566
-0.063007 -1.5334 -0.221576
0.485487 -0.298437 -1.43259
-0.656925 1.15958 -0.801525
-0.626544 1.12851 -0.862979
-0.74468 0.672562 -1.20079
0.593103 0.306571 -1.39149
0.138356 1.51773 0.262587
0.955568 -0.499117 1.16335
0.00594653 1.51643 0.266009
0.0188095 1.56683 0.134054
0.0713128 1.5174 0.263463
-0.687306 1.19066 -0.740071
0.242904 1.2345 1.0041
0.419751 -0.216253 1.4577
0.31875 1.26949 0.912494
-0.120579 1.57 0.12575
0.0765829 1.57225 0.119853
-0.0774561 0.777747 -1.58845
0.319133 -0.36276 1.49614
0.36917 -0.306638 1.47702
0.667477 -0.401716 1.36308
1.56403 -0.141375 -0.0962915
-0.216318 0.241771 1.53541
-0.351518 -1.42566 -0.503652
-0.323836 -1.39901 -0.573424
-0.163611 -1.28891 -0.861658
0.289409 -1.55378 -0.168211
0.165124 -1.23237 -1.00967
-1.12769 0.677542 -0.812802
1.36493 -0.437026 0.174048
0.423701 0.719656 -0.470892
0.353225 -0.267699 0.710994
1.20889 -0.597648 -0.0968116
1.28871 -0.619901 -0.122178
-0.167438 -0.0176612 0.952333
-0.106029 -0.0591447 0.892242
0.811083 -0.37426 -1.20245
0.906262 -0.537681 0.0636489
0.498739 -1.5839 -0.089373
1.25262 0.226058 0.0725685
-0.5347 0.0199931 1.2993
-0.490347 0.00552171 1.21956
-0.441017 -0.00673946 1.16166
-0.587796 0.343449 1.29928
-0.537833 0.287738 1.17727
-0.487587 0.286349 1.11099
-1.17003 -0.697413 0.0824671
1.2256 -0.547061 -0.0600633
-1.39984 -0.29685 -0.0644626
-1.31512 -0.284195 -0.0818121
-1.23431 -0.278234 -0.110874
0.963736 -0.718979 -0.189053
1.03537 -0.726793 -0.227015
1.45884 0.168477 0.150099
0.626465 0.757723 -0.508047
-0.456147 0.0735971 1.26297
0.303386 0.171709 0.498869
0.49632 -0.249621 0.647397
1.14125 -0.694494 -0.253813
1.22974 -0.729151 -0.278281
1.20758 -0.0451316 0.258148
0.879647 -0.058685 0.983504
0.109592 -0.316596 0.880827
1.11874 -0.747812 -0.251473
1.20264 -0.77532 -0.27241
1.12795 0.70368 -0.124686
1.22922 0.707246 -0.104874
0.980272 -0.676279 -0.163634
1.06002 -0.678445 -0.213447
-0.405297 0.0617972 1.19228
0.4377 -0.550971 0.0940159
0.8251 -0.284138 0.508394
-0.477556 0.32406 1.15637
0.713036 -0.684001 -0.104735
-1.25232 0.690743 0.471888
-1.07256 -0.277577 -0.192379
0.250597 -0.779345 1.1868
0.270851 -0.7655 1.11618
0.137426 -0.254157 0.892458
-0.164838 0.261737 0.836477
-0.101564 0.295413 0.77602
1.30739 -0.574534 -0.0852197
0.329263 0.220683 -1.40667
1.2665 0.692841 -0.0146475
0.324408 1.48952 0.336455
-0.524027 0.411824 1.31795
-0.473519 0.404701 1.24826
-0.423898 0.397052 1.17826
-0.377146 0.387705 1.10728
0.773425 1.01269 -0.189523
-0.00733197 -0.335111 0.973119
0.653968 -0.614246 -0.0232259
0.730715 -0.632879 -0.0605958
0.809979 -0.648903 -0.0965703
0.18575 -0.246682 0.839738
0.236938 -0.246732 0.791104
0.293016 -0.257448 0.748489
1.29811 -0.412073 0.235143
-1.15163 -0.27778 -0.151323
-0.349962 0.0535576 1.12902
0.817096 -0.497257 -1.11252
0.233925 0.262352 -1.36206
0.215574 -0.79808 1.23677
0.962565 -0.281898 0.461502
0.897176 0.742494 -0.00907587
0.557678 -0.258796 0.607665
0.630761 -0.251028 0.592207
0.920338 0.978518 -0.157492
1.09134 0.691033 -0.0184805
-0.0355076 0.279546 0.721064
0.0226712 0.270342 0.655502
-0.817397 -0.239681 -0.24956
1.04858 -0.552023 -0.0420489
0.838302 -0.535282 0.115493
-0.0982643 -0.331086 1.09101
1.41597 -0.326539 0.398958
0.0814731 0.246372 0.596307
0.717216 -0.32583 -1.1519
0.85711 -0.748716 -0.183121
0.949842 -0.75576 -0.210518
1.35671 0.204212 0.135459
-0.294683 0.310345 0.948218
-0.226175 0.313951 0.890004
-0.15628 0.313708 0.834196
0.997314 0.691184 -0.0226714
-1.28762 0.630269 0.209475
0.891455 -0.29226 0.481698
0.893794 -0.665114 -0.132213
1.38869 -0.117305 0.238373
1.145 -0.518844 -0.0348453
-0.463911 -1.03372 -0.0145371
-0.031191 -0.496379 0.39
-0.282793 0.0361702 1.07834
-0.193932 -0.342965 1.21331
-0.142111 -0.324465 1.15846
0.998689 -0.486652 0.0391506
1.07024 -0.496139 -0.00899027
0.696034 0.380608 0.223642
-0.297458 0.285357 0.951498
1.17996 0.693035 -0.0146391
-0.413889 0.318313 1.09031
-0.35417 0.312402 1.01783
0.53444 0.69822 -0.491815
-0.593116 0.296132 1.2513
-0.0549097 -0.342096 1.02698
-1.14654 0.725549 0.586929
-0.530034 0.335115 1.22292
0.212613 -0.562064 0.159209
0.279356 -0.574965 0.109994
0.229629 0.203425 0.536947
0.0554044 -0.312718 0.93206
0.166985 -0.323759 0.834049
0.641357 -0.417074 0.233086
0.975274 -0.542303 0.00595552
0.414444 -0.277054 0.67462
0.699424 -0.253698 0.570568
-1.24502 -0.728389 0.107989
1.12922 -0.575435 -0.071247
1.1921 -0.849085 -0.253345
0.758429 -0.27232 0.534044
1.03193 -0.783863 -0.227002
1.11157 -0.815387 -0.241412
0.5616 -0.659324 -0.0271779
0.691459 -0.450328 0.165323
0.919747 -0.471983 0.10121
0.512005 -0.110779 -1.2443
0.418719 -0.621916 0.042207
0.107966 -0.567577 0.291994
0.173302 -0.605238 0.24933
1.29747 -0.0675093 0.212991
-0.429895 0.286189 1.05109
-0.987659 -0.269508 -0.241589
1.08089 -0.0490297 0.986518
-0.228724 0.275761 0.902279
-1.0978 -0.665172 0.0525591
-1.02214 -0.615332 0.0322648
0.520901 0.476339 0.258526
-0.100943 0.248139 0.772184
0.152671 0.22803 0.56215
0.771065 -0.084395 1.03079
0.819959 -0.0672603 0.997067
0.475704 -0.28604 0.640488
0.0367987 -0.525487 0.334426
-0.505302 0.0817609 1.33742
0.880657 -0.706464 -0.16123
-0.53732 -0.700869 0.355619
0.303463 -0.512493 0.182158
0.369434 -0.531948 0.138725
-0.471438 -0.708366 0.28637
-0.942388 -0.596543 -0.00299152
0.727596 -0.311968 0.517035
-0.904655 -0.267156 -0.264684
-0.364036 0.288036 1.00564
0.636574 -0.672823 -0.0685119
0.487857 -0.629714 0.00230709
0.767799 -0.518175 0.15478
0.799537 -0.695063 -0.129018
0.795944 -0.321922 0.497513
0.585627 -0.138864 -1.29925
-0.22522 0.0124612 1.01656
0.610034 0.42854 0.242706
0.349959 -0.615271 0.0820637

CELLS 0 0

CELL_TYPES 0

CELL_DATA 0
SCALARS CellEntityIds int 1
LOOKUP_TABLE default
