# vtk DataFile Version 2.0 
Created by AlgoHex
ASCII
DATASET UNSTRUCTURED_GRID
POINTS 1433 double
-0.0368995 -0.113158 1.414
-2 -2 0.589652
-2 2 0.434186
2 -2 -0.66302
2 2 -0.278771
-0.124062 -1.32986 1.414
1.1304 0.0849026 -1.414
-0.225554 -0.772164 1.414
0.636933 -0.204667 -1.414
0.982472 0.07272 -1.414
-0.129936 -1.19458 1.414
-0.690207 0.0374148 -1.414
4.44089e-16 1.11905 1.414
0.0814592 0.0827771 1.414
0.723317 -0.13532 -1.414
-2 0.62602 -1.414
-2 0.513501 -1.414
-2 0.400982 -1.414
-2 0.288463 -1.414
-2 0.175944 -1.414
-2 0.0634256 -1.414
-0.155355 -0.336341 1.414
-0.126999 -1.26222 1.414
-0.829374 0.00886507 -1.414
-0.968541 -0.0196847 -1.414
-1.10183 -0.0433777 -1.414
1.41314 -2 0.225852
1.53908 -2 0.0259539
1.66358 -2 -0.11988
1.7805 -2 -0.287319
1.89025 -2 -0.47517
0.676042 -2 1.414
0.8112 -2 1.414
0.946358 -2 1.414
1.12329 -2 0.729479
1.2676 -2 0.540207
-2 1.89528 0.183355
-2 1.78705 -0.0344801
-2 1.67345 -0.201793
-2 1.56293 -0.561204
-2 1.44702 -0.727475
-0.177298 -0.984803 1.414
-2 -1.43458 -0.642804
-2 -1.5602 -0.392031
-2 -1.67878 -0.22471
-2 -1.78585 0.0383066
-2 -1.89293 0.313979
2 1.894 -0.489313
2 1.78742 -0.667394
2 1.6792 -0.754963
2 1.57097 -0.842533
2 1.46141 -0.988362
2 1.3497 -1.35961
-1.36846 -2 -1.414
-1.47371 -2 -1.414
-1.57897 -2 -1.414
-1.68423 -2 -1.414
-1.78949 -2 -1.414
-1.89474 -2 -1.414
2 -1.37364 1.414
2 -1.47804 1.414
2 -1.58243 1.414
2 -1.68682 1.414
2 -1.79122 1.414
2 -1.89561 1.414
-2 -1.30968 -0.856765
-2 -0.0484165 -1.414
-2 -0.159384 -1.414
-2 -0.270352 -1.414
-2 -0.38132 -1.414
-2 -0.492287 -1.414
-2 -0.603255 -1.414
2 -0.694699 1.414
2 -0.80846 1.414
2 -0.92222 1.414
2 -1.03598 1.414
2 -1.14974 1.414
2 -1.2635 1.414
0.116613 -0.101277 1.414
1.06045 0.0992854 -1.414
0.628366 -0.0792209 1.414
0.732663 -0.0780857 1.414
-2 1.39922 1.414
0.326015 0.780752 -1.414
0.369291 0.667273 -1.414
0.00997653 1.23381 1.414
0.194097 1.11251 -1.414
0.239463 1.00771 -1.414
0.282739 0.894231 -1.414
-1.26909 2 1.414
-1.14549 2 1.414
-1.02188 2 1.414
-0.898283 2 1.414
-0.77468 2 1.414
-2 1.29453 1.414
-2 1.18108 1.414
-2 1.06763 1.414
-2 0.954173 1.414
-2 0.840721 1.414
-1.22882 -2 1.414
-1.11825 -2 1.414
-1.00769 -2 1.414
-0.897124 -2 1.414
-0.786559 -2 1.414
-0.675993 -2 1.414
-0.495377 -2 -1.414
-0.351376 -2 -1.414
-0.207374 -2 -1.414
-0.0633733 -2 -1.414
-0.0921771 -2 1.414
2 -0.105993 -1.414
2 -0.222485 -1.414
2 -0.338977 -1.414
2 -0.45547 -1.414
2 0.582949 -1.414
2 0.468423 -1.414
2 0.353898 -1.414
2 0.239373 -1.414
2 0.124848 -1.414
2 0.0103225 -1.414
0.557653 0.494853 -1.414
0.199773 0.266044 1.414
0.682957 2 -1.414
0.80062 2 -1.414
0.918283 2 -1.414
1.03595 2 -1.414
1.15361 2 -1.414
1.27127 2 -1.414
0.220789 -2 -1.414
0.362328 -2 -1.414
0.503867 -2 -1.414
0.645406 -2 -1.414
2 1.2404 -1.414
2 1.13151 -1.414
2 1.02262 -1.414
2 0.913734 -1.414
2 0.804845 -1.414
2 0.695957 -1.414
-0.27381 -0.559524 1.414
-0.608373 2 -1.414
-0.461274 2 -1.414
-0.314175 2 -1.414
-0.167075 2 -1.414
-0.0199764 2 -1.414
-0.740235 2 -1.414
-2 -0.831679 1.414
-2 -0.94616 1.414
-2 -1.06064 1.414
-2 -1.17512 1.414
-2 -1.2896 1.414
1.39687 2 1.414
1.51749 2 1.414
1.65944 2 0.584364
1.89168 2 0.00793523
-1.39852 2 1.08848
-1.52725 2 0.780588
-1.6476 2 0.716205
-1.76796 2 0.651822
-1.88831 2 0.587439
0.546007 -2 1.414
1.27597 2 1.414
1.78195 2 0.357085
0.0713257 2 1.414
0.191044 2 1.414
0.310761 2 1.414
0.430479 2 1.414
-1.50181 0.511754 -1.414
-1.58484 0.512045 -1.414
-1.58484 0.399526 -1.414
-1.66788 0.512336 -1.414
-1.66788 0.399817 -1.414
-1.75091 0.512627 -1.414
-1.75091 0.400108 -1.414
-1.75091 0.28759 -1.414
-1.83394 0.625437 -1.414
-1.83394 0.512918 -1.414
-1.83394 0.4004 -1.414
-1.83394 0.287881 -1.414
-1.83394 0.175362 -1.414
-1.91697 0.625728 -1.414
-1.91697 0.51321 -1.414
-1.91697 0.400691 -1.414
-1.91697 0.288172 -1.414
-1.91697 0.175653 -1.414
-0.0264727 -1.03971 1.414
0.134847 -1.12224 1.414
1.48084 -1.89955 1.414
1.61059 -1.79909 1.414
1.61063 -1.89955 1.414
1.74041 -1.89955 1.414
-0.509271 -1.21538 1.414
-0.484246 -1.3537 1.414
-0.48131 -1.42134 1.414
-0.343849 -0.42203 -1.414
-0.292051 -0.544029 -1.414
-0.367122 -1.27811 1.414
-0.364185 -1.34575 1.414
-0.361248 -1.41339 1.414
-0.358311 -1.48103 1.414
-0.355375 -1.54867 1.414
0.588058 -0.372809 -1.414
-0.357173 -0.713209 1.414
-0.320126 -0.919904 1.414
-0.271871 -1.13254 1.414
-0.24706 -1.27017 1.414
-0.244124 -1.33781 1.414
-0.241187 -1.40545 1.414
-0.23825 -1.47309 1.414
-0.235313 -1.54073 1.414
-0.232376 -1.60837 1.414
-0.22944 -1.67601 1.414
-0.226503 -1.74365 1.414
-0.121125 -1.3975 1.414
-0.118189 -1.46514 1.414
-0.115252 -1.53278 1.414
-0.112315 -1.60043 1.414
-0.109378 -1.66807 1.414
-0.106442 -1.73571 1.414
-0.103505 -1.80335 1.414
-0.100568 -1.87099 1.414
-0.732897 0.972583 -1.414
-0.751036 0.85827 -1.414
-0.769174 0.743957 -1.414
-0.527722 1.09181 -1.414
-0.54586 0.977497 -1.414
-0.563999 0.863185 -1.414
-0.582138 0.748872 -1.414
-0.395101 0.753786 -1.414
1.47471 -1.87973 -1.414
1.58641 -1.75947 -1.414
0.812872 -1.91005 1.414
0.949703 -1.8201 1.414
0.94803 -1.91005 1.414
1.08486 -1.8201 1.414
1.08319 -1.91005 1.414
1.21835 -1.91005 1.414
-1.2359 1.88458 -1.414
-1.24398 1.77052 -1.414
-1.25205 1.65647 -1.414
-1.26013 1.54242 -1.414
-1.2682 1.42837 -1.414
-1.27628 1.31432 -1.414
-1.12229 1.76894 -1.414
-1.13037 1.65489 -1.414
-1.13844 1.54084 -1.414
-1.00868 1.6533 -1.414
1.40648 -1.39943 -1.414
1.60366 -1.39928 -1.414
1.60001 -1.51928 -1.414
1.70224 -1.3992 -1.414
1.80083 -1.39912 -1.414
1.89942 -1.39904 -1.414
-1.68419 1.65346 -1.414
-1.78946 1.76897 -1.414
-1.78946 1.6537 -1.414
-1.78946 1.53842 -1.414
-1.89473 1.88449 -1.414
-1.89473 1.76921 -1.414
-1.89473 1.65394 -1.414
-1.89473 1.53866 -1.414
-1.49793 0.624611 -1.414
-1.5727 0.738144 -1.414
-1.58218 0.624796 -1.414
-1.64746 0.851676 -1.414
-1.65694 0.738328 -1.414
-1.66643 0.624981 -1.414
-1.73171 0.851861 -1.414
-1.74119 0.738513 -1.414
-1.75068 0.625166 -1.414
-1.82544 0.738698 -1.414
-1.90969 0.738883 -1.414
0.663148 1.34881 1.414
0.66872 1.23502 1.414
0.674292 1.12123 1.414
0.786892 1.32413 1.414
0.916208 1.18566 1.414
0.921779 1.07187 1.414
1.03995 1.16098 1.414
1.15812 1.25009 1.414
-1.51821 -1.17846 -1.414
-1.50736 -1.29418 -1.414
-1.61737 -1.17945 -1.414
-1.60653 -1.29516 -1.414
-1.72739 -1.06472 -1.414
-1.71654 -1.18043 -1.414
-1.7057 -1.29614 -1.414
-1.81571 -1.18141 -1.414
-1.80487 -1.29713 -1.414
-1.90404 -1.29811 -1.414
-1.79672 -1.52987 -1.414
-1.79672 -1.64674 -1.414
-1.89836 -1.53119 -1.414
-1.89836 -1.64806 -1.414
-1.89836 -1.76493 -1.414
1.8027 1.6736 -1.414
1.8027 1.56513 -1.414
1.90135 1.89103 -1.414
1.90135 1.78257 -1.414
1.90135 1.6741 -1.414
1.90135 1.56564 -1.414
1.90135 1.45718 -1.414
1.3129 1.56463 -1.414
1.32896 1.3469 -1.414
1.38845 1.89105 -1.414
1.39648 1.78219 -1.414
1.40451 1.67332 -1.414
1.41255 1.56446 -1.414
1.52926 1.23947 -1.414
1.54053 1.1315 -1.414
1.62534 1.23981 -1.414
1.6366 1.13184 -1.414
1.64787 1.02387 -1.414
1.72141 1.24015 -1.414
1.73268 1.13218 -1.414
1.81748 1.2405 -1.414
1.91355 1.24084 -1.414
-1.47792 -1.8816 -1.414
-1.58737 -1.76319 -1.414
-1.58317 -1.8816 -1.414
-1.68843 -1.8816 -1.414
0.0698357 1.92237 1.414
0.0648474 1.86499 1.414
0.0598592 1.80761 1.414
0.0548709 1.75023 1.414
0.0498826 1.69285 1.414
0.0448944 1.63547 1.414
0.0399061 1.57809 1.414
0.185449 1.77363 1.414
0.18046 1.71625 1.414
0.175472 1.65887 1.414
0.170484 1.60149 1.414
0.165496 1.54411 1.414
0.160507 1.48673 1.414
0.155519 1.42935 1.414
0.150531 1.37197 1.414
0.145543 1.31459 1.414
0.140554 1.25721 1.414
0.301062 1.62488 1.414
0.296073 1.5675 1.414
0.291085 1.51012 1.414
0.286097 1.45274 1.414
0.281109 1.39536 1.414
0.27612 1.33798 1.414
0.271132 1.2806 1.414
0.421663 1.53352 1.414
0.416675 1.47614 1.414
0.411686 1.41876 1.414
0.406698 1.36138 1.414
0.537276 1.38478 1.414
1.74036 -1.5926 1.414
1.74036 -1.697 1.414
1.87018 -1.58752 1.414
1.87018 -1.69191 1.414
1.87018 -1.7963 1.414
-1.39232 1.90323 1.414
-1.39374 1.8072 1.414
-1.39517 1.71116 1.414
-1.39659 1.61512 1.414
-1.39802 1.51909 1.414
-1.39944 1.42305 1.414
-1.51359 1.80568 1.414
-1.51502 1.70964 1.414
-1.51644 1.6136 1.414
-1.51787 1.51757 1.414
-1.88993 -1.90285 1.414
-1.77986 -1.8057 1.414
-1.77982 -1.90285 1.414
-1.66979 -1.70855 1.414
-1.66975 -1.8057 1.414
-1.22776 -1.45585 1.414
-1.22803 -1.55086 1.414
-1.22829 -1.64586 1.414
-1.22856 -1.74087 1.414
-1.22883 -1.83588 1.414
-1.11803 -1.57824 1.414
-1.1183 -1.67325 1.414
-1.11857 -1.76826 1.414
-1.88993 -1.5004 1.414
-1.51273 -0.491239 -1.414
-1.59394 -0.380446 -1.414
-1.59394 -0.491414 -1.414
-1.67515 -0.380621 -1.414
-1.67515 -0.491589 -1.414
-1.67515 -0.602556 -1.414
-1.75636 -0.269828 -1.414
-1.75636 -0.380796 -1.414
-1.75636 -0.491763 -1.414
-1.75636 -0.602731 -1.414
-1.83758 -0.159035 -1.414
-1.83758 -0.270003 -1.414
-1.83758 -0.38097 -1.414
-1.83758 -0.491938 -1.414
-1.83758 -0.602906 -1.414
-1.91879 -0.15921 -1.414
-1.91879 -0.270177 -1.414
-1.91879 -0.381145 -1.414
-1.91879 -0.492113 -1.414
-1.91879 -0.60308 -1.414
0.683483 -1.39839 -1.414
0.808635 -1.39842 -1.414
0.801371 -1.51732 -1.414
0.933788 -1.39846 -1.414
0.926524 -1.51736 -1.414
1.05894 -1.39849 -1.414
1.05168 -1.51739 -1.414
1.18409 -1.39853 -1.414
1.74925 -0.941151 1.414
1.74925 -1.05491 1.414
1.87463 -0.817925 1.414
1.87463 -0.931686 1.414
1.87463 -1.04545 1.414
1.87463 -1.15921 1.414
-0.497965 1.31921 -1.414
-0.339446 1.54606 -1.414
-0.336205 1.43348 -1.414
-0.332965 1.3209 -1.414
-0.180927 1.77292 -1.414
-0.177686 1.66033 -1.414
-0.174446 1.54775 -1.414
-0.171206 1.43517 -1.414
-0.167966 1.32259 -1.414
-0.164725 1.21 -1.414
-0.0191671 1.88719 -1.414
-0.0159268 1.77461 -1.414
-0.0126866 1.66202 -1.414
-0.0094463 1.54944 -1.414
-0.00620604 1.43686 -1.414
-0.00296578 1.32428 -1.414
0.674224 -1.32732 1.414
0.817015 -1.18084 1.414
0.959805 -1.03437 1.414
0.955178 -1.15206 1.414
0.950551 -1.26976 1.414
1.09334 -1.12328 1.414
-0.902608 -1.6396 1.414
-0.89945 -1.7053 1.414
-0.800147 -1.58921 1.414
-0.796988 -1.65491 1.414
-0.79383 -1.72061 1.414
-0.790671 -1.78631 1.414
[...]
CELL_DATA 0
SCALARS CellEntityIds int 1
LOOKUP_TABLE default
