# vtk DataFile Version 2.0 
Created by AlgoHex
ASCII
DATASET UNSTRUCTURED_GRID
POINTS 1284 double
0.54108 0.45892 -0.0580865
-1 0 -0.707
0 -1 0.707
-0.506622 -0.493378 -0.00936323
0.288906 -0.711094 0.298487
-0.413783 0 -0.707
0.502741 0.34301 -0.00387548
0.494917 0.315458 0.00718765
0.487345 0.288296 0.017894
0.257143 0.37031 -0.183381
0.289209 0.378339 -0.172029
0.321071 0.386529 -0.160448
0.13732 0.343573 -0.221188
-0.473192 -0.526808 0.0379065
-0.440426 -0.559574 0.084238
-0.407659 -0.592341 0.13057
-0.380836 -0.619164 0.168497
-0.355826 -0.644174 0.203862
-0.330816 -0.669184 0.239226
-0.305806 -0.694194 0.27459
-0.280291 -0.719709 0.310668
-0.254624 -0.745376 0.346962
-0.228956 -0.771044 0.383256
-0.203288 -0.796712 0.41955
-0.175651 -0.824349 0.458629
-0.147725 -0.852275 0.498117
-0.119798 -0.880202 0.537605
-0.0911564 -0.908844 0.578105
-0.0607709 -0.939229 0.62107
-0.0303855 -0.969615 0.664035
0.150974 -0.849026 0.493523
-0.799121 -0.200879 -0.422958
-0.7731 -0.2269 -0.386164
-0.747079 -0.252921 -0.34937
-0.721058 -0.278942 -0.312576
0.165594 0.346861 -0.216539
0.195696 0.354621 -0.205567
0.225799 0.36238 -0.194594
0.585205 0.414795 -0.12048
0.645998 0.354002 -0.206442
0.442958 0.426296 -0.104218
0.47546 0.437178 -0.08883
0.50827 0.448049 -0.0734582
0.531597 0.430077 -0.0446782
0.522114 0.401234 -0.0312699
0.512632 0.372391 -0.0178615
-0.881559 -0.118441 -0.539525
-0.854063 -0.145937 -0.500646
-0.826567 -0.173433 -0.461766
0.805856 0.194144 -0.432481
-0.969964 -0.0300361 -0.664529
-0.939928 -0.0600722 -0.622058
-0.909892 -0.0901083 -0.579587
-0.957521 0.0424788 -0.646935
-0.845523 0 -0.707
-0.579452 -0.420548 -0.112345
-0.543037 -0.456963 -0.0608542
0.44459 0.55541 0.0783502
0.0421782 0.957822 0.64736
-0.715701 0 -0.707
0.351427 0.39591 -0.147183
0.381783 0.405292 -0.133917
0.412278 0.415346 -0.119701
-0.69474 -0.30526 -0.275363
-0.667165 -0.332835 -0.236372
-0.63959 -0.36041 -0.197381
-0.612015 -0.387985 -0.15839
0.0419756 -0.958024 0.647647
0.0839511 -0.916049 0.588293
0.151203 0.848797 0.4932
0.45103 0.152738 0.0692434
0.447313 0.123903 0.0744993
0.479773 0.261133 0.0286004
0.472202 0.233971 0.0393067
0.46463 0.206809 0.0500131
0.457622 0.179739 0.0599229
-0.243461 0.571354 0.362747
-0.210336 0.552095 0.409584
-0.216364 0.590144 0.401061
-0.222392 0.628193 0.392538
-0.18324 0.570885 0.447899
0.388804 0.0982435 0.157231
0.515441 -0.00291735 -0.021834
-0.563821 -0.239711 -0.368049
-0.533775 -0.263179 -0.334864
0.0543576 -0.163547 -0.475745
0.0829428 -0.184128 -0.446643
0.111528 -0.204709 -0.417542
-0.210735 -0.691301 0.2705
-0.234522 0.073471 0.375386
-0.187976 0.11112 0.441202
-0.169913 0.0863685 0.466743
0.596205 0.0555914 -0.628394
0.455057 0.278232 -0.31358
0.632551 0.105077 -0.558422
0.691383 0.0961266 -0.571077
-0.215402 0.367809 0.402421
-0.204911 0.510482 0.417257
-0.199701 0.467584 0.424622
-0.194492 0.424687 0.431988
-0.177584 0.530634 0.455896
-0.172375 0.487736 0.463262
0.0292958 -0.636175 0.192551
-0.0245846 0.403821 0.672237
0.0189259 0.44704 -0.0748848
0.0616853 0.453746 -0.0654035
0.00352084 0.568745 0.0972056
-0.592748 -0.216671 -0.400627
-0.124699 0.503169 0.530676
-0.183464 0.763968 0.447582
-0.174225 0.720883 0.460645
-0.165247 0.677823 0.47334
-0.160354 0.635141 0.480259
-0.155461 0.59246 0.487178
-0.150258 0.550786 0.494536
-0.146085 0.748076 0.500435
-0.136847 0.704991 0.513498
-0.131222 0.662242 0.521452
-0.126872 0.617155 0.527603
-0.103342 0.683798 0.560875
0.118476 0.270188 -0.324955
-0.313441 0.405092 0.263794
-0.304747 0.37097 0.276088
-0.292512 0.342505 0.293388
-0.289154 0.459277 0.298136
-0.284509 0.418685 0.304704
-0.279043 0.379405 0.312433
-0.266809 0.350939 0.329732
-0.250933 0.391686 0.352181
-0.241106 0.359374 0.366077
0.846685 -0.0658456 -0.490212
0.818171 -0.0943588 -0.449894
-0.0521849 0.713853 0.633211
-0.0517305 0.644166 0.633853
-0.0260924 0.73471 0.670105
-0.0260924 0.65987 0.670105
-0.0251665 0.59553 0.671415
-0.667302 0.0311153 -0.236564
-0.57825 -0.134367 -0.517005
-0.618863 0.0438327 -0.168072
-0.0952619 0.330145 0.5723
-0.0732972 0.397914 0.603358
-0.0711377 0.333836 0.606411
-0.0489409 0.400867 0.637798
-0.0469489 0.335659 0.640614
-0.0234744 0.332659 0.673807
-0.306471 0.522934 0.273651
-0.293442 0.618339 0.292073
-0.283269 0.584402 0.306457
-0.273096 0.550466 0.320842
-0.252329 0.607251 0.350207
-0.542694 -0.106116 -0.0603696
-0.416602 -0.337358 -0.229976
-0.353672 -0.233299 -0.377115
0.000903102 -0.220259 -0.395554
0.0441631 -0.23983 -0.367881
0.672956 -0.20534 -0.244559
0.51241 0.0754762 -0.0175472
0.787595 0.0462863 -0.641551
0.545318 0.318519 -0.256614
0.840308 0.0455278 -0.642624
0.577993 0.330398 -0.239817
0.611996 0.3422 -0.223129
-0.0767778 0.635162 0.598436
-0.0752987 0.577535 0.600528
-0.0502138 0.586526 0.635998
-0.0499848 0.529297 0.636321
-0.0499149 0.466039 0.63642
-0.0249574 0.535618 0.67171
-0.262362 -0.520951 0.33602
-0.239972 -0.552232 0.367679
0.368183 0.340056 -0.226161
0.521182 0.114417 -0.545214
-0.122823 0.448388 0.533328
-0.120862 0.388357 0.536101
-0.0992639 0.455111 0.566641
-0.0972816 0.393778 0.569444
-0.0488785 0.871826 0.525762
-0.0208023 0.895627 0.559416
0.0103426 0.925986 0.602344
0.336117 0.332027 -0.237513
-0.272123 0.677484 0.322218
-0.262226 0.642367 0.336212
-0.241989 0.706223 0.364828
-0.231673 0.664751 0.379415
-0.21194 0.736272 0.407317
-0.318342 -0.386374 0.256865
-0.28164 -0.47841 0.308761
0.129448 -0.0185995 -0.6807
0.137318 -0.0371989 -0.654401
0.230759 -0.200673 -0.423249
0.228671 -0.22677 -0.386347
0.226583 -0.252868 -0.349444
-0.25149 0.175685 0.351393
-0.254574 0.322474 0.347032
-0.244203 0.286344 0.361697
-0.238863 0.229505 0.369247
-0.228924 0.330691 0.383301
0.397829 -0.262454 0.14447
0.14512 -0.0942904 -0.573673
0.153266 -0.11347 -0.546554
0.161413 -0.132649 -0.519434
0.16956 -0.151829 -0.492314
0.233799 -0.0972029 -0.569555
-0.319409 0.442795 0.255356
0.272976 -0.191049 0.321012
0.0900271 -0.61419 0.579702
-0.217583 -0.583513 0.399338
-0.0999905 -0.710282 0.297339
-0.149112 -0.679903 0.496155
-0.164625 -0.751294 0.47422
-0.126333 -0.705922 0.528366
-0.0240199 -0.819959 0.452422
-0.181306 0.71986 0.310882
-0.372891 -0.366256 -0.189114
-0.435089 -0.406921 0.0917837
0.733959 0.215344 -0.402503
0.275731 0.586182 0.121862
0.313852 0.593955 0.132853
0.148692 0.594365 0.496749
0.15035 0.641182 0.494405
0.348285 0.522762 0.214525
0.148391 0.744506 0.497175
0.149797 0.796652 0.495188
0.895647 -0.0138426 -0.559444
0.5591 0.324778 -0.0835671
-0.517159 -0.363348 -0.193227
-0.156196 -0.531878 0.486138
0.63454 0.326094 -0.19024
0.623083 0.298187 -0.174039
0.611625 0.270279 -0.157838
-0.0238756 -0.683455 0.67324
0.149334 -0.771336 0.495842
0.358078 0.282972 0.200677
0.368154 0.316485 0.186431
0.3775 0.346787 0.173215
0.229125 0.336971 0.383017
0.256378 0.369246 0.344481
0.283631 0.401522 0.305945
0.310884 0.433797 0.26741
-0.212847 -0.354183 0.406034
0.38612 0.373893 0.161026
0.00295009 -0.725912 0.319439
0.0274212 -0.745163 0.34666
0.0518922 -0.764414 0.373882
0.0763633 -0.783665 0.401103
0.100834 -0.802917 0.428324
-0.0448495 -0.875711 0.531255
-0.0524746 -0.789127 0.632801
-0.0288249 -0.816909 0.666242
-0.314527 -0.558487 0.0827008
-0.132845 0.775196 0.389127
0.277358 0.500795 0.00112433
-0.111688 0.809548 0.437701
0.311101 0.509367 0.0132456
-0.133474 0.176693 0.518267
-0.128214 0.0630016 0.525706
-0.114486 0.264477 0.545117
-0.11195 0.165947 0.548703
-0.107662 0.0329646 0.554766
-0.0927668 0.256745 0.575828
-0.0904248 0.155201 0.579139
-0.0874322 -0.00612998 0.583371
-0.067878 0.154793 0.61102
-0.0662277 -0.0271475 0.613354
-0.0449864 0.157873 0.643389
0.535254 0.240235 -0.0498486
0.600167 0.242372 -0.141636
0.592321 0.212559 -0.130542
0.590483 0.167321 -0.127943
-0.125486 0.559557 0.529562
-0.101825 0.626158 0.563019
-0.100392 0.568546 0.565045
-0.100172 0.51132 0.565356
-0.0750786 0.520309 0.600839
-0.0748723 0.462531 0.601131
-0.67743 -0.233992 -0.376136
-0.64702 -0.259228 -0.340451
0.0419756 -0.88137 0.647647
0.0827107 -0.759844 0.590047
0.143502 -0.0559041 -0.627952
0.14183 -0.0751019 -0.600806
0.233931 -0.0396187 -0.650979
0.232259 -0.0588164 -0.623834
0.230586 -0.0780142 -0.596688
-0.401341 -0.213254 -0.405459
-0.728502 -0.185601 -0.44456
-0.654459 -0.170559 -0.465829
-0.703339 -0.208392 -0.412334
-0.621753 -0.19363 -0.433207
0.175451 -0.243147 -0.363191
0.178164 -0.218165 -0.398515
0.180877 -0.193183 -0.433839
0.17681 -0.170893 -0.465357
0.0834952 -0.83833 0.588938
0.0415943 -0.803825 0.648186
-0.296265 0.494484 0.288081
-0.264867 0.513463 0.332478
-0.260222 0.472871 0.339045
-0.255578 0.432278 0.345613
-0.237446 0.533228 0.371251
-0.232237 0.49033 0.378617
-0.227028 0.447432 0.385983
-0.222001 0.40528 0.393091
-0.613711 -0.283947 -0.305499
0.363119 0.461802 -0.054012
-0.0910506 0.854208 0.578254
-0.0857891 0.805445 0.585694
-0.0805275 0.756683 0.593134
-0.0782773 0.692996 0.596316
-0.0596591 0.826488 0.622642
-0.0543976 0.777726 0.630082
-0.0282676 0.798769 0.66703
0.240186 0.307118 -0.272735
0.2324 -0.0198985 -0.678863
-0.337025 0.618866 0.230447
-0.326851 0.584929 0.244832
-0.316676 0.551383 0.25922
-0.303615 0.652275 0.277688
0.897201 0.0454538 -0.642728
-0.0636713 0.877614 0.616969
-0.0318356 0.909449 0.661984
-0.0318356 0.850734 0.661984
0.575723 0.385952 -0.107072
0.0470197 -0.144581 -0.502562
-0.408084 -0.46363 -0.0514267
-0.632915 -0.0700153 -0.607998
-0.851299 -0.0697681 -0.496737
-0.823803 -0.097264 -0.457858
-0.395311 -0.0197017 -0.679142
-0.00171949 0.840293 0.481174
0.0263567 0.864094 0.514828
0.0544329 0.887894 0.548483
-0.328604 0.547577 0.0672742
0.118863 0.394365 -0.149368
0.448845 0.356942 0.0723329
0.0837314 0.694299 0.588604
0.456555 0.384418 0.0614317
0.370326 0.0611207 -0.620575
0.366347 0.229962 -0.381834
0.391682 0.138989 0.153162
0.0678177 -0.269785 -0.325525
-0.296661 0.0389704 0.287521
-0.282778 0.116001 0.307152
-0.256802 0.0944691 0.343882
0.209872 0.48365 -0.0231183
-0.155682 0.747969 0.350628
-0.071486 0.742796 0.343314
-0.892725 -0.0300361 -0.664529
[...]
CELL_DATA 0
SCALARS CellEntityIds int 1
LOOKUP_TABLE default
