# vtk DataFile Version 2.0 
Created by AlgoHex
ASCII
DATASET UNSTRUCTURED_GRID
POINTS 42 double
0 5 5
-1.90244 0.0111678 9.55134
0 0 10
2.86295 2.86295 5
2.32719 2.83851 0
-2.98279 -3.9631 0.771236
-3.01493 -3.94626 0.925483
2.58537 -9.66e-15 5.65584
-4.67341 0.100332 6.32879
-4.51147 0.156777 6.99489
2.75385 4.16089 0.225593
2.69251 4.19975 0.419913
2.63116 4.23862 0.614233
2.56982 4.27748 0.808553
-3.31777 -3.69005 5
1.38156 4.77939 0
-2.64797e-15 -1.16566e-14 5.67549
-5.29595e-15 -3.71263e-15 6.35097
4.32684 -1.61669e-14 7.38595
-1.22688 -0.093393 9.79608
-0.565662 -0.0385313 9.92842
1.96496 2.87131 5
0.841028 1.94931 5
0 1.6681 7.08374
3.41794 -3.55643 5
-1.17556 4.80854 4.28593
-3.15996 -3.75794 5.36125
-3.00215 -3.82584 5.72251
-2.84434 -3.89373 6.08376
1.30355 4.81112 0.270006
1.18455 4.83817 0.695511
1.06555 4.86521 1.12102
2.19066 -3.51485 7.14023
-1.31402 4.75028 5.6739
-0.173211 4.99418 4.14368
-1.23221 4.60618 6.37825
-0.640195 4.85089 5.6788
1.19162 4.82418 1.63902
0.487232 -1.8205e-15 7.22151
1.11067 -4.1499e-15 7.01948
0.623468 -6.21406e-15 6.18856
-0.649825 4.92739 3.41404

CELLS 0 0

CELL_TYPES 0

CELL_DATA 0
SCALARS CellEntityIds int 1
LOOKUP_TABLE default
