# vtk DataFile Version 2.0 
Created by AlgoHex
ASCII
DATASET UNSTRUCTURED_GRID
POINTS 583 double
8 8 10
5.80074 9.48601 0.661426
2 5.30269 10
3.76798 0 6.18042
3.3432 3.26901 0
5 0.585786 0.585786
8 0 3.47899
7.19569 5.50632 0
2 10 5.09455
7.14951 9.55763 9.25451
8 5.39117 10
7.04287 3.47047 10
5 0.585786 9.41421
2 7.37378 0
4.39507 10 7.77255
4.83082 0 2.22006
3.96462 10 7.07227
7.28921 5.90567 0
4.29384 6.35024 0
4.45397 6.65586 0
4.43108 6.96835 0
5.32153 7.56975 0
5.51575 8 0
5.57475 4.28526 0
5.61631 4.59708 0
5.53763 4.93684 0
5.56457 5.26442 0
10 8 3.62273
10 8 3.79464
6.75042 10 2.15123
6.85287 10 2.30245
6.96133 10 2.45527
7.09411 10 2.6415
5.26703 10 4.29604
6.09198 10 4.40263
5.01727 0 6.77905
4.60388 0 7.05599
4.72943 0 7.33428
7.06243 3.73823 10
4.43847 0 2.45633
3.01253 0 2.84095
2.95899 0 3.17221
3.10243 0 3.4386
10 8 2.68333
10 8 2.8434
10 8 3.14979
5.13032 0 6.48049
4.7433 0 7.55795
2 7.51202 10
6.41403 8.88891 9.78979
6.86565 10 4.94331
6.84694 0 4.00035
6.86549 10 4.69187
3.71239 10 7.36406
4.2595 10 7.53213
2 6.28867 10
2 6.96946 10
5.82251 0 4.92685
5.53307 0 5.24559
5.48158 0 5.55359
3.77652 0 5.90054
2 6.66654 10
0 8 2.60448
7.22503 8.28891 9.96074
6.5451 8.60168 9.86108
3.97535 2.22284 0
3.71033 2.44568 0
3.4475 2.68892 0
3.28663 2.9755 0
7.24091 10 2.82596
7.44621 10 2.99966
7.52512 10 3.18208
7.67816 10 3.332
5.57542 8.29048 0.0615824
0.442282 2 0.764113
5.58363 8.56363 0.118683
5.59059 8.86383 0.212276
3.56107 3.56218 0
5.74821 3.64194 0
5.60159 3.96647 0
0 8 2.20149
0 8 2.40299
6.22282 2.44478 10
7.04127 2.95212 10
7.06707 3.21549 10
7.15302 4.02676 10
8 4.27169 10
8 4.52074 10
8 4.76978 10
4.74078 0 7.77897
3.46676 0 3.95017
0 8 6.95336
0 8 7.21738
5.92804 2.22106 10
6.95738 2.70184 10
2 7.26802 10
7.92699 10 3.46189
3.80664 10 6.13694
3.87336 10 6.45583
3.96603 10 6.76472
10 8 2.99659
10 8 3.96655
10 8 4.13846
0 8 6.68933
3.25938 0 4.82035
3.51033 0 4.51123
0 8 3.68737
0 8 4.00691
0 8 7.41957
0 8 7.61305
2 7.75601 10
0 3.47056 5.09233
0 3.4411 5.38406
0 2.44155 4.42672
0 2.68161 4.36674
10 5.21115 4.92975
9.75674 8.92961 2.81549
9.73953 8.95703 2.94656
9.73868 8.96805 3.162
9.74289 8.9675 3.26326
10 4.22553 4.74734
10 4.24607 5.04925
0 2.19085 6.70713
9.70653 8.9832 3.92982
0.360315 9.0797 5.3335
9.71695 8.97661 3.84348
0 2.21054 4.47845
0 2.21054 4.71305
0 2.42108 4.68001
10 3.72491 3.37128
10 3.77557 3.63968
10 4.09454 3.61106
0 4.439 4.72605
0 4.73685 5.01525
0 5.6765 7.10945
0 5.72346 7.55449
0 5.74694 7.777
0.0473526 8.34813 7.23767
0 2.63323 2.56518
10 4.23075 2.82352
10 2.66256 6.80461
10 2.91891 6.86043
0 4.9921 5.93369
0 4.96447 6.23022
0 5.3165 6.23527
0 7.68358 3.48148
0 6.7083 4.58305
0 7.02148 4.20774
0 7.33896 5.60694
0 7.66989 5.62816
0 3.65 3.00202
0 4.02776 2.94874
0.131304 8.63819 4.58581
9.87053 8.64222 3.74816
10 2.18914 5.11866
10 2.18914 5.35758
10 2.37828 5.36404
0 7.01752 5.25213
0 7.0112 5.61275
0 7.3427 5.22421
10 5.57471 5.8102
10 5.89932 5.7281
0 3.57875 3.61894
0 5.30342 6.53418
0 5.29736 6.83425
0 5.68394 6.84498
0 2.39982 6.4564
0 2.38729 6.73163
10 5.55207 5.16685
10 5.88257 4.78459
10 5.88577 5.08848
10 2.30266 2.88663
10 2.454 2.6282
10 2.45399 2.8887
0 7.01686 4.54341
0 7.3313 4.49557
0 5.89576 2.41579
0 5.82509 2.63987
10 3.53031 3.93053
0 2.94975 2.52609
0 2.96692 2.82724
0 3.30421 3.06413
10 6.33153 2.92978
10 6.2829 3.15068
10 3.90423 2.83214
10 4.67905 6.94034
0 5.27964 7.08457
10 3.68288 2.20411
10 4.0113 2.20411
10 3.59166 4.5
10 3.61805 4.78525
10 3.12175 3.13042
10 3.20633 3.66853
10 3.44207 3.38584
0 3.61057 7.78566
9.92212 8.51124 2.26593
0.476533 2.0911 0.723005
0.510783 2.18219 0.681897
0.612817 1.56215 0.661336
0.695942 1.43416 0.618643
10 2.16186 3.42587
10 2.33565 3.42809
10 2.50945 3.4303
10 4.36035 3.31954
10 4.73396 3.28589
10 5.22574 5.23413
9.72737 8.97003 3.75714
10 2.15133 2.42372
10 2.15133 2.63854
10 2.30267 2.4178
10 2.30267 2.63262
10 6.89964 4.96149
10 7.26257 4.7654
10 7.24305 5.09025
10 2.80345 4.55669
0 7.10488 3.05975
0 5.68213 2.21078
0 5.59606 2.42061
0 5.50999 2.63044
0 5.74704 2.85712
0 6.10128 7.12569
0 4.85736 7.07678
10 4.61517 2.80438
10 2.48347 7.70441
0.0551969 8.35282 6.15141
10 2.83133 5.67127
10 3.08448 5.3836
10 5.18183 4.33785
10 4.83937 4.38273
10 4.85943 4.68269
10 5.19683 4.62951
10 2.5653 4.84645
10 2.57266 5.11537
10 2.8206 4.83929
10 2.82795 5.10821
10 3.08325 5.10105
10 4.26633 5.35264
10 4.58104 5.32705
0 5.04107 5.31169
0 5.01385 5.62236
10 5.50131 2.18501
0 4.90022 6.81555
0.163395 8.71449 6.59761
0 3.30294 2.4853
0 3.74525 5.36412
0 4.05726 5.35282
0.0473526 8.34813 7.44352
10 2.23026 7.31029
10 2.46079 7.37446
0.0472922 8.33832 7.6324
10 4.63908 6.29526
10 4.65953 6.62297
0 7.73604 7.20194
0 2.59907 6.48005
0 2.59249 6.75271
0 2.80617 6.77012
0 7.67761 6.34449
10 6.90558 7.27515
0 3.98875 3.25371
0 7.69428 6.66327
0 2.86435 5.69047
0 3.17885 5.11086
10 6.21974 4.95905
0.065652 8.31909 4.67992
10 2.42513 2.20674
10 2.55879 2.20674
9.67858 7.20698 0.931431
10 6.56554 4.55108
0 7.67466 5.98425
0 3.74637 2.47276
0 7.1689 7.15926
0 7.47797 7.18626
10 4.13696 3.88309
10 4.44941 3.85735
10 4.48792 4.1311
0 3.23237 4.27094
0 3.21327 4.55257
0 6.87392 2.59557
0 6.85327 2.82464
10 5.32738 7.51289
10 5.31412 7.21107
10 5.11658 3.25278
10 5.50909 3.21862
0 5.55199 3.72091
0 2.23434 4.22025
0 2.46543 4.15886
0 2.69652 4.09747
0 6.07282 4.62327
0 6.3936 4.6068
0 6.70026 4.92314
10 7.41339 2.83662
10 7.35699 3.04555
0 3.51748 4.50892
0 3.49539 4.80061
9.94816 8.32872 3.9813
0 7.04535 3.89856
0 6.43963 3.96536
10 4.28623 5.67108
10 4.60102 5.64105
10 4.00075 6.0014
10 4.30866 5.98899
0 3.33418 6.51466
0 3.30488 6.79403
0 6.13549 7.36643
0 6.15763 7.59256
10 7.6739 3.03598
0 5.97846 3.11441
10 3.83634 7.5123
10 4.11695 7.50609
9.94816 8.32872 3.80939
10 3.49011 6.92454
0 2.20876 3.3783
0 2.20916 4.95584
0 2.418 4.93292
0 4.41381 2.92324
0 3.66438 2.70818
0 4.18478 2.47016
0 4.10168 2.70555
9.9577 8.27246 2.72028
9.91827 8.53122 2.60063
9.92298 8.50875 2.45315
9.78755 8.84193 2.26723
10 7.00482 3.26776
10 7.31552 3.61489
0 4.11572 4.74403
0 4.08627 5.04923
4.46159 8.72525 9.8457
9.68907 8.99853 4.28411
9.67985 9.01491 4.95349
0 4.61609 6.23372
0 4.93696 6.52701
10 4.02335 6.32184
10 4.05106 6.63852
10 4.35274 6.63745
0 5.34751 3.13875
0 7.03584 6.28039
0 3.82796 4.47841
0 2.41768 5.43387
0 4.78307 7.57747
0 6.97311 7.61965
0 4.89677 3.76524
0 5.23273 3.73885
0 5.1726 4.05207
10 5.09078 3.02956
10 6.22274 5.27647
10 6.55647 5.13679
0 4.85971 2.64425
0 5.18842 2.63501
0 5.02544 3.1558
0 5.96507 2.1932
0 6.4522 2.1932
0 6.40998 2.3864
0 6.36777 2.57959
9.86024 8.63863 5.99276
9.88727 8.61855 6.9963
0.291271 9.02001 7.81628
0 2.65192 4.90675
0 4.58765 2.41732
0 6.433 6.85514
0 6.48058 7.12539
0.311503 9.00286 3.27652
0.318473 9.00587 3.43197
9.96186 8.25262 2.2284
0.0360081 8.29208 2.4106
9.96186 8.25262 2.57006
10 6.55901 5.84971
10 6.8982 6.04474
0 7.01463 4.88125
0 7.33299 4.84572
0 7.37599 6.6183
0 7.40768 6.91653
0 6.60277 7.60477
0 6.66162 7.80891
10 2.77295 4.27824
10 3.58131 7.75733
0 6.53884 7.3888
0 6.83088 7.13705
0 3.20963 7.32145
10 5.01384 7.75664
10 5.50671 2.37049
10 5.48278 2.55689
10 5.52066 3.99807
10 5.87566 3.9291
10 5.88075 4.48944
9.95357 8.29212 2.86847
9.95357 8.29212 3.02166
9.95357 8.29212 3.17485
9.91356 8.55369 2.74811
0.24109 8.94155 2.44286
9.77323 8.90198 2.68166
0 2.66139 4.64083
0 2.9362 4.31474
0 3.53954 4.21865
9.87999 8.60854 3.25865
9.86846 8.61884 3.37178
0.153854 8.72056 3.9299
10 6.89641 6.88624
10 6.22051 4.65765
10 6.55699 4.82566
0 2.21334 3.67371
0 2.42669 3.60956
0 2.73362 7.54665
0 2.94468 7.55752
10 3.30696 7.75355
10 3.55926 7.51407
10 3.48907 3.65453
9.94096 8.32966 4.32685
9.88438 8.659 4.34273
9.87739 8.65992 4.51632
0 4.33615 3.21108
0 4.67598 3.17627
0 4.61807 3.48465
10 3.03451 7.75298
0 7.13907 2.58824
0 7.11678 2.82274
10 3.05256 4.5393
0 2.9493 3.74641
0 2.94197 4.03217
0 6.74226 3.94003
0 6.71676 4.24391
0 3.57422 6.8051
10 3.19942 6.89729
0 7.66016 4.81824
0.113484 8.65207 2.91312
0 7.66298 4.41681
9.88049 8.6481 3.88299
9.9566 8.31736 7.35132
10 5.89497 3.18179
10 5.88722 3.43252
10 7.61597 5.56292
10 7.60638 7.57256
10 3.82387 3.90978
10 3.85556 4.19376
10 4.17187 4.16224
10 3.69367 6.00701
10 6.57664 6.97902
10 5.00624 7.23525
10 5.97428 7.70315
10 6.55719 5.48927
10 6.8967 5.66797
10 4.56181 5.02117
10 5.91711 6.42688
10 3.65551 5.38708
10 3.95746 5.37433
10 2.20547 6.14824
10 2.19204 5.59871
10 2.40473 5.62318
10 2.58657 5.38515
10 2.61742 5.64765
10 2.20826 5.87074
10 2.63021 5.92191
10 2.84119 5.94749
10 2.8647 6.24252
10 3.13715 6.28186
10 3.11377 5.98025
10 3.39365 5.99856
0 3.35332 7.78312
0 2.20726 5.20429
0 2.41452 5.18881
0 4.41727 7.34126
0 3.80675 7.08561
0 3.73545 7.34616
0 4.11081 7.0973
0 4.04292 7.32878
0 4.76837 4.69871
0 5.50021 4.02844
0 5.86598 3.69766
0 2.40102 6.21274
0 3.61659 6.52066
0 3.2761 3.37023
0 2.2054 2.31466
0 2.97398 3.13897
0 2.95925 3.45125
0 3.25516 3.67632
0 3.2546 3.97298
0 5.33987 5.93149
0 4.51021 2.66108
0 3.04012 6.78268
0 4.97063 2.41252
0 5.28367 2.40807
0 2.41152 2.2858
10 2.81619 2.63153
10 3.38945 2.2021
10 2.69339 2.20666
10 2.89623 2.20103
10 3.14024 2.20095
10 5.93812 2.73642
10 5.54619 4.8631
10 4.82394 4.09734
10 5.17123 4.05357
10 5.56377 5.48565
10 5.89126 5.39639
9.8731 8.65874 4.72809
9.87312 8.62203 5.22346
9.93655 8.33024 4.52545
0 7.12089 2.19064
0 7.13636 2.38219
0 7.40537 2.57535
0 7.70198 2.38793
0 7.70198 2.58942
0 7.38952 2.1918
0 7.39638 2.38361
0 7.69819 2.1918
0 6.65626 2.38369
0 6.37737 4.9367
0 3.99364 5.94152
0 6.47247 3.6601
0 7.39615 2.8083
0 6.76694 3.64078
0 6.69557 2.19054
0 6.90701 2.19054
0 6.896 2.38109
0.0550192 8.33779 3.51942
0.120404 8.66585 3.08777
0.116396 8.66961 3.26217
0.321754 9.0472 3.76436
9.92886 8.31732 3.53737
0.0537559 8.33898 3.79321
0 7.67124 5.21356
0.1693 8.7187 6.3217
0.317397 9.03871 6.06743
0 6.40164 6.55849
0 6.03762 6.55015
0 6.78169 6.8636
0 2.55224 7.29028
0 5.22584 7.78186
0 7.51637 7.43308
0 7.75819 7.42633
0 7.75819 7.6198
0 7.33418 7.81178
0 7.52827 7.62356
0 7.54915 7.81178
10 5.5851 6.16019
10 6.2254 5.62501
0 6.02951 2.83937
0 6.26764 3.10068
0 6.58928 2.81889
10 3.78123 6.95272
10 3.81727 7.25899
0 5.81509 4.00535
0 5.74952 4.64223
10 4.33036 6.31189
10 2.71645 7.43088
10 2.95391 7.17016
10 4.7128 7.51356
10 4.71871 7.75678
10 4.41359 7.50878
10 4.4305 7.75657
0 2.52633 7.77035
0 2.97567 7.30832
0 2.18444 7.24921
0 2.37949 7.00425
0 2.36796 7.26978
0 3.68193 5.95103
0 6.13487 3.98501
0 6.41262 4.27795
10 2.46899 3.15221
10 5.53531 4.56005
10 6.70374 2.8872
10 6.65725 3.10966
10 7.66728 3.36224
10 7.66033 3.53633
10 7.70276 2.84845
10 7.02858 3.06001
10 7.34273 3.23251
10 7.33325 3.41697
10 6.43929 2.51102
0 7.69309 2.8079
4.63831 8.45671 9.90609
10 3.09517 5.67431
10 3.35841 5.39416
10 3.37397 5.6885
0.296688 9.03419 7.33468
10 6.59786 7.68107
9.73446 8.9686 3.06074
0.318163 9.054 7.18916
0 2.19085 6.98029
9.93655 8.33024 4.76695
0 2.18214 7.76472
10 8 7.49028
10 5.62727 7.17803
0 8 6.02451
0 8 6.39514

CELLS 0 0

CELL_TYPES 0

CELL_DATA 0
SCALARS CellEntityIds int 1
LOOKUP_TABLE default
