# vtk DataFile Version 2.0 
Created by AlgoHex
ASCII
DATASET UNSTRUCTURED_GRID
POINTS 2166 double
-54.1196 -54.1196 10
54.1196 -54.1196 -10
19.7934 10.1566 10
-54.1196 54.1196 5.32907e-15
54.1196 54.1196 5.32907e-15
2.90319 -9.03038 10
0.0603827 -20.8214 10
-0.193694 8.10529 10
-3.06484 -6.57028 -10
-18.9429 -10.1858 10
-6.95757 7.73441 10
5.44322 -2.77913 10
4.57164 10.4356 -10
-2.80821 -6.22628 10
21.0712 2.19733 10
-20.3272 -8.24181 10
19.948 18.9062 10
1.37895 -21.6343 -10
-23.3949 -19.9873 10
-9.88843 -8.95037 -10
23.3582 -21.6455 10
11.134 -12.5176 2.84886
-21.7253 -17.1603 10
-54.1196 -17.5233 10
-54.1196 -14.9364 10
54.1196 -27.9663 -10
54.1196 -25.6717 -10
-54.1196 39.1583 0.00762056
-54.1196 41.0741 0.0215552
-54.1196 7.63108 7.47278
54.1196 -48.3784 -10
54.1196 -46.4491 -10
54.1196 -44.5198 -10
-19.4706 54.1196 10
-16.7292 54.1196 10
-6.90906 -54.1196 -10
-54.1196 -35.7902 0.965655
-54.1196 -33.6733 0.429181
-4.10257 54.1196 -10
-0.537404 54.1196 -10
-54.1196 13.9299 -9.3139
-54.1196 10.8486 -3.38843
40.2782 -54.1196 10
42.2916 -54.1196 10
-33.6376 54.1196 -10
-31.4359 54.1196 -10
34.5871 54.1196 -10
36.6051 54.1196 -10
38.6232 54.1196 -10
-54.1196 -31.548 -6.37344
54.1196 -12.0509 -10
-54.1196 42.9759 0.0482446
-54.1196 44.8608 0.090183
19.9671 -54.1196 -10
22.5185 -54.1196 -10
19.9208 -1.28113 10
54.1196 19.0867 2.56882
54.1196 -8.83398 10
54.1196 -5.44862 10
54.1196 10.9846 10
54.1196 13.8213 10
54.1196 -23.2353 -10
54.1196 -20.6743 -10
54.1196 -17.9598 -10
54.1196 -15.1477 -10
54.1196 -38.5889 10
54.1196 -36.5589 10
54.1196 -34.529 10
54.1196 -32.3877 10
54.1196 -30.2413 10
54.1196 -42.5493 10
54.1196 -40.5807 10
54.1196 23.8901 9.13881
54.1196 21.5376 6.18211
36.1462 -54.1196 10
38.2277 -54.1196 10
29.7086 -54.1196 10
31.8786 -54.1196 10
34.0487 -54.1196 10
25.0452 -54.1196 10
27.3842 -54.1196 10
44.3166 -54.1196 -10
46.2858 -54.1196 -10
48.255 -54.1196 -10
50.2153 -54.1196 -10
52.1675 -54.1196 -10
54.1196 -52.2085 -10
54.1196 -50.2973 -10
0.320592 -54.1196 10
4.04062 -54.1196 10
-3.37512 -54.1196 10
10.9737 -54.1196 10
14.2092 -54.1196 10
7.57842 -54.1196 10
17.1288 -54.1196 10
-13.4218 -54.1196 -10
-10.299 -54.1196 -10
-19.1722 -54.1196 10
-16.3931 -54.1196 10
-26.4564 -54.1196 10
-28.6955 -54.1196 10
-21.7025 -54.1196 10
-24.1771 -54.1196 10
-54.1196 -37.8684 8.29596
-30.8684 -54.1196 -10
-32.9652 -54.1196 -10
-35.0275 -54.1196 -10
-37.0076 -54.1196 -10
-38.9878 -54.1196 -10
-40.9239 -54.1196 -10
-42.8499 -54.1196 -10
-44.7537 -54.1196 10
-46.6364 -54.1196 10
-48.519 -54.1196 10
-54.1196 -48.0862 10
-54.1196 -46.0643 10
-54.1196 -44.0391 10
-54.1196 -41.9887 10
-54.1196 -39.9383 10
-50.3902 -54.1196 10
-52.2549 -54.1196 10
-54.1196 -52.1109 10
-54.1196 -50.1021 10
-54.1196 -29.3641 10
-54.1196 -27.1323 10
-54.1196 -24.9004 10
-54.1196 -22.5043 10
-54.1196 -20.0827 10
-54.1196 -11.9883 -10
-54.1196 -2.49202 -10
-54.1196 -9.00129 -10
-54.1196 -5.81485 -10
-54.1196 0.791361 10
-54.1196 4.26991 10
-54.1196 16.7829 -10
-54.1196 19.5659 -10
-54.1196 26.7315 10
-54.1196 28.96 10
-54.1196 22.0223 10
-54.1196 24.4925 10
-54.1196 35.229 10
-54.1196 37.1903 10
-54.1196 31.0898 10
-54.1196 33.1867 10
-50.1047 54.1196 0.00717129
-48.0885 54.1196 0.0051265
-46.0723 54.1196 0.0030817
-54.1196 46.7333 0.0992837
-54.1196 48.5844 0.052652
-54.1196 50.4352 0.00733682
-54.1196 52.2774 0.00366841
-52.1128 54.1196 0.0039962
-44.065 54.1196 10
-42.0109 54.1196 10
-39.9567 54.1196 10
-37.8697 54.1196 10
-35.7692 54.1196 10
-29.2178 54.1196 -10
-26.8898 54.1196 -10
-24.5589 54.1196 -10
-22.0583 54.1196 -10
-13.9327 54.1196 -10
-10.8225 54.1196 -10
-7.48692 54.1196 10
3.05045 54.1196 -10
6.52895 54.1196 -10
9.88055 54.1196 -10
12.9486 54.1196 -10
21.1693 54.1196 -10
23.5995 54.1196 -10
15.8815 54.1196 -10
18.6199 54.1196 -10
25.8805 54.1196 10
28.1438 54.1196 10
54.1196 40.5595 -3.16342
44.5218 54.1196 10
54.1196 44.4731 -2.04413
54.1196 42.526 -4.71723
54.1196 46.4167 0.107259
54.1196 38.5885 -0.617278
54.1196 52.1969 0.00382868
52.2039 54.1196 0.00381485
54.1196 50.2739 0.0100903
54.1196 48.3453 0.0586748
40.6045 54.1196 -10
42.5647 54.1196 -10
30.3813 54.1196 -10
32.4874 54.1196 -10
54.1196 32.5121 -10
54.1196 30.4335 -10
54.1196 28.29 -10
54.1196 26.0954 -10
54.1196 36.5796 -10
54.1196 34.5846 -10
54.1196 16.5327 -7.13188
54.1196 1.44355 -10
54.1196 4.83677 -10
54.1196 -1.99755 -10
54.1196 7.97037 -10
12.7172 11.6947 6.34341
13.826 12.4605 5.67158
-22.2036 -0.167013 5.52077
46.4508 54.1196 0.106399
48.3694 54.1196 0.0580672
50.288 54.1196 0.00973571
-1.93567 5.17403 10
-18.5876 -18.6219 -10
-19.3582 -23.5413 -10
-23.2047 -11.2214 10
-49.5797 4.39409 -10
-26.4956 -8.4462 10
-32.279 -22.1139 -10
-33.2249 -21.3868 10
-31.4022 -20.2986 -10
-41.911 -10.4243 10
-26.209 -29.3024 -10
-24.2494 -27.9785 -10
-26.4834 -23.9596 10
-24.54 -22.5807 10
7.72752 -49.7519 10
-37.4683 -24.5221 10
-39.1529 -24.1241 10
-36.9303 -28.7441 10
-38.6887 -28.4432 10
-37.2252 -26.6754 10
-11.9566 -39.0386 10
-12.2465 -37.4839 10
-7.95092 -40.9753 -10
-8.11712 -39.5344 -10
-32.5806 -12.379 -10
-34.1441 -12.0059 -10
-35.7077 -11.6329 -10
-47.3414 -27.4203 -10
-49.0296 -27.3206 -10
-28.4994 -4.07784 -10
-48.5804 -46.0987 -10
-50.4355 -46.0787 -10
-12.6329 -35.9182 10
-35.4538 -15.0387 -10
-37.0199 -14.4698 -10
-37.2718 -11.2136 -10
-50.4016 -50.1114 10
-48.5555 -48.1214 10
-50.4132 -48.1014 10
-4.05365 -39.8656 -10
-20.0831 -42.5949 10
-20.4364 -40.835 10
-20.7896 -39.0751 10
-49.5781 -5.94145 -10
-0.218994 -28.7341 -10
-40.4196 -28.164 10
-42.1574 -27.9255 10
-36.2178 -34.838 -10
-36.4777 -32.8432 -10
-38.289 -32.6103 -10
-12.1324 -24.6341 -10
-15.5225 -23.2422 -10
-32.3734 -19.7954 10
-28.8746 -19.7267 10
-29.8883 -18.6117 10
-30.902 -17.4967 10
-20.5106 -30.7022 -10
-17.8749 -29.7536 -10
-21.2483 -28.7241 -10
-4.90387 38.4202 10
-15.4908 -20.3191 -10
-12.0767 -22.1372 -10
-0.613574 -25.2017 -10
5.97871 -23.6421 10
-0.112633 -33.0811 -10
-0.157914 -31.6875 -10
-13.6446 -32.6187 -10
-14.1055 -30.8838 -10
-4.79668 -34.0943 10
-5.08203 -32.6554 10
5.534 -24.4289 -10
-19.2753 -49.2232 -10
-19.4587 -47.619 -10
-16.5885 -49.3551 -10
-5.41986 -31.1901 10
-26.701 -48.8155 -10
-26.8084 -47.0567 -10
-11.9227 -26.8636 10
4.44679 -38.5254 -10
4.43448 -37.1364 -10
-9.10042 -35.0199 10
-8.44087 -38.0442 10
-8.72694 -36.5548 10
-19.3657 -25.6122 10
-14.9199 -29.1551 10
-23.7504 -10.7668 -10
-48.111 -2.66788 -10
-49.6108 -2.60166 -10
-14.1573 -44.8734 -10
-39.3362 -42.43 -10
-41.2376 -42.3359 -10
-39.4544 -40.4245 -10
-41.3558 -40.3304 -10
-9.85277 -32.0057 -10
-19.0842 -21.324 -10
-15.6018 -25.2968 -10
-30.8914 -26.3678 -10
-29.6676 -24.9817 -10
-29.1379 -23.3947 -10
-28.6219 -21.8037 -10
-28.9541 -26.8646 -10
-27.8092 -25.4557 -10
-52.4504 19.6013 -10
-50.7778 19.627 -10
-50.6946 22.1711 -10
-35.0933 -18.2441 10
-46.2462 -15.4064 -10
19.3865 -30.8063 -10
18.1603 -32.4288 -10
-47.8221 -15.2201 -10
-47.9099 -12.3422 -10
-5.93986 -26.6539 -10
-6.95053 -24.1681 -10
-49.3908 -15.0254 -10
-49.4632 -12.2344 -10
-16.6611 -33.4735 -10
-17.305 -31.6056 -10
-14.3733 -43.2778 10
-14.578 -41.6951 10
-18.6831 -27.7196 10
-26.9309 -5.14932 10
-4.24407 -38.4233 10
-4.41146 -36.9796 10
-4.57886 -35.5359 10
-49.2355 -20.244 10
-49.3111 -17.7126 10
-47.6984 -17.9233 10
-46.0857 -18.1339 10
-45.0417 -6.36701 -10
-46.5582 -6.21113 -10
-48.0746 -6.05524 -10
-34.7656 0.671213 -10
-23.6958 -36.8209 10
-39.0513 -26.3653 -10
-40.6997 -26.0275 -10
-43.5841 -6.85148 10
-42.1785 -3.51153 10
-27.6299 -13.4925 -10
-29.2789 -13.3624 -10
-45.3013 -33.9937 -10
-45.4005 -31.8759 -10
-43.7684 -29.9047 -10
-45.4997 -29.7581 -10
-47.231 -29.6116 -10
-15.2364 -27.2634 -10
-27.7566 -11.6265 10
-33.3406 -23.9548 -10
-34.7824 -23.1224 -10
-34.7159 -3.89115 -10
23.3313 -30.193 10
24.2737 -32.0847 10
25.0556 -30.6336 10
26.7799 -31.0741 10
-52.5338 -17.589 10
52.4317 -25.749 -10
-39.727 -19.2544 -10
-38.3624 -16.9365 -10
-39.9481 -16.6133 -10
-52.1505 44.8739 10
-50.186 44.8883 10
-50.159 46.7547 10
-48.1721 46.7802 10
-50.1341 48.5976 -10
50.3017 52.2036 10
51.1814 8.06822 10
-4.35752 24.6334 -10
0.589565 27.3409 10
0.409213 29.005 10
-44.7908 -50.1685 -10
-46.6729 -50.1391 -10
-46.6897 -48.1414 -10
-44.7774 -52.142 -10
24.8578 -2.44761 10
-41.3945 30.038 10
-46.8684 29.3168 -10
-44.9101 31.5705 -10
-44.7776 33.622 -10
-32.8886 -9.98969 10
-52.5966 7.66492 10
52.19 -46.4596 -10
-28.4004 39.0505 -10
-28.102 40.7642 -10
-27.8036 42.478 -10
-35.4652 -42.659 10
-35.5934 -40.7348 10
48.1189 11.339 10
34.4029 14.2887 10
36.0133 13.7375 10
37.0172 42.9941 -10
37.1644 41.12 -10
34.9751 -28.2248 10
35.3703 -25.8796 10
28.0515 -23.9292 -10
30.0625 -22.9824 -10
31.2472 -24.9684 -10
31.7785 -22.142 -10
22.841 -30.064 -10
21.8191 -31.8222 -10
-43.4039 -9.86362 -10
-44.9445 -9.62484 -10
-25.6924 -12.2357 -10
-45.6977 -25.3473 10
-42.4788 -23.4311 10
-44.176 -23.2177 10
-16.8059 52.5897 10
-16.8825 51.0599 10
-6.97668 -52.6506 -10
-7.04429 -51.1817 -10
-7.11191 -49.7127 -10
-31.0253 -12.9215 -10
-34.4665 -9.37298 10
-38.133 45.2676 -10
-38.0484 47.0758 -10
-36.0568 45.3674 -10
22.784 -49.2584 10
22.9372 -47.6155 10
23.0905 -45.9726 10
-4.49937 45.5114 -10
-4.57141 44.0819 -10
30.5891 -41.9253 -10
30.8305 -40.1692 -10
-50.5899 -33.7418 10
-52.361 -33.7246 10
40.8033 -41.0763 -10
40.9299 -39.1415 -10
42.618 -42.8681 -10
42.7446 -40.9332 -10
-17.1519 47.9526 10
-17.3066 46.4193 10
-24.2047 -35.0141 -10
42.312 -52.2466 10
6.58838 51.2079 10
-4.75171 42.6665 -10
-4.97956 41.2574 -10
-5.2074 39.8482 -10
29.3448 39.9316 -10
29.6558 38.0917 -10
31.3861 39.7336 -10
-35.7935 -38.7929 -10
-36.0176 -36.8297 -10
48.258 -52.2271 10
44.3189 -52.2442 10
44.3333 -50.3691 10
44.3804 -48.4807 -10
44.4345 -46.5869 -10
44.4887 -44.693 -10
46.3911 -46.546 -10
-33.6802 52.3956 -10
-31.4785 52.3956 -10
-50.1224 50.4443 -10
-48.1357 48.6191 -10
-48.1182 50.4572 -10
36.6367 52.2773 -10
28.536 0.791258 10
-52.3648 -31.5901 -10
25.3646 -47.4719 -10
27.7294 -47.3265 -10
13.6888 32.8285 -10
13.0956 34.4183 -10
-46.7343 -46.1465 -10
[...]
CELL_DATA 0
SCALARS CellEntityIds int 1
LOOKUP_TABLE default
