# vtk DataFile Version 2.0 
Created by AlgoHex
ASCII
DATASET UNSTRUCTURED_GRID
POINTS 162 double
16.9413 -8.41786 -4.8814
-24.1283 -5.81112 -1.25279
-23.4164 -8.75628 -3.85186e-31
-14.1085 -7.15664 2.74108
-12.1261 -18.2505 4.61453
-7.25552 -15.4765 -4.05586
-1.46685 -16.1656 3.28901
1.85321 -16.5832 3.7383
6.50428 -13.9299 -1.87436
6.58591 -16.6363 4.51763
2.79013 -16.4419 3.72709
15.8748 -18.6543 2.1386
11.0243 -10.1782 0.209728
18.9914 -15.7089 1.82311
21.0585 -12.8013 1.83401
18.0586 -5.1695 -4.83928
23.4595 5.34836 2.88925
18.5612 8.56986 -4.96767
20.6592 14.0769 -3.85186e-31
14.3579 19.0066 3.20511
5.8657 24.2971 -3.85186e-31
6.75793 24.0644 -3.85186e-31
2.34104 24.8877 -3.85186e-31
-14.6921 20.2221 -3.85186e-31
-7.3169 23.3051 -2.31309
-10.4384 22.0482 2.36725
-10.9639 11.6373 -2.96964
-12.7031 21.2511 1.44314
-12.2663 10.2419 -2.97174
-22.6261 10.631 -3.85186e-31
-22.7473 7.42671 3.0772
-16.2029 -15.1796 -4.4683
-11.0498 -12.4166 -3.68976
-12.4378 -10.18 -3.09472
-4.38212 -14.3622 -0.213544
0.104514 -16.6082 3.65068
-2.44328 -22.3864 4.30906
0.492521 -16.6447 3.68594
3.82692 -16.724 4.10321
16.2106 -7.69856 -4.55467
24.2782 -1.71234 2.45589
17.6947 15.9734 3.18641
7.62352 14.5489 3.47566
8.6519 23.4502 -3.85186e-31
8.33842 14.5706 3.83169
4.96369 24.4973 -3.85186e-31
1.46969 16.3795 3.50573
6.6117 14.6897 3.12736
-3.36465 24.6592 -1.00959
-18.9051 12.6332 4.16735
-19.4831 12.0174 4.05601
-24.0063 1.77099 2.8588
-23.7817 2.94466 3.03546
-23.4399 5.14451 2.97353
-22.7749 -7.33874 3.05992
-15.9321 -17.1894 -3.60682
4.29323 -16.8424 4.24788
24.9186 -0.0744701 0.838015
23.8663 -6.17141 -1.80451
24.1543 2.00399 2.62668
15.8972 17.4181 3.46531
16.5448 16.9315 3.3705
-3.90164 14.5922 -1.01841
-13.0575 20.0484 -3.07484
23.9858 -5.14862 -2.08011
16.2522 5.56638 4.12821
-23.9196 -6.87692 -1.01889
-23.0231 -9.74055 -3.85186e-31
-22.6386 -10.6055 -3.85186e-31
-22.2567 -11.3815 -3.85186e-31
-18.6211 -12.0132 -4.49961
-7.33458 -14.7363 3.53176
-7.66593 -14.7038 -3.63617
-6.41288 -15.8092 -4.04151
-5.93146 -24.2811 -3.85186e-31
-2.60383 -14.7868 0.219941
6.82346 -13.7644 -1.87187
-12.6907 -9.57291 -2.83516
-12.1419 -10.6683 -3.19763
-6.83822 -15.6496 -4.05235
-11.4025 -18.8132 4.57509
-10.7949 -19.5508 4.39319
-14.8714 -17.8073 3.82957
0.926803 -16.6852 3.74985
1.3864 -16.6402 3.74042
13.2757 -21.1782 -3.85186e-31
13.6311 -20.0255 2.63684
9.75779 -22.0941 2.76071
17.6796 -17.3684 -1.37077
19.5441 -15.0064 1.8414
20.067 -14.2936 1.8506
22.7738 -9.60293 1.61685
22.4006 -10.4535 1.62567
-23.9571 -3.30296 2.73139
-24.3603 -4.78153 -1.27943
24.2891 -0.783986 2.51483
24.001 3.84929 2.5134
23.6976 4.59605 2.78318
19.1506 7.50803 -4.95492
17.1486 10.5704 -4.98494
18.4617 15.5805 2.74755
18.9213 8.07416 -4.95722
18.1975 9.08954 -4.97391
13.2576 7.60632 -1.6783
15.3499 17.8744 3.47853
7.99188 14.5533 3.65392
4.09189 24.6582 -3.85186e-31
2.20157 15.2962 -2.08144
7.6596 23.7931 -3.85186e-31
18.341 16.9835 -3.85186e-31
-5.3196 24.1296 -1.60411
-1.41985 23.7791 3.21212
-2.23785 23.7347 3.13824
-15.4212 19.6728 -3.85186e-31
-16.083 19.1381 -3.85186e-31
-11.6121 21.6763 1.95838
-8.31323 22.6351 2.79359
-9.35016 22.3688 2.6356
-11.3657 11.1115 -2.83909
-11.8257 10.6377 -2.84669
-23.1721 6.20959 2.99282
-24.4247 3.75269 -1.63024
-24.1035 -1.73467 2.75123
-23.947 -2.58125 2.87661
-18.4749 -2.41461 4.79907
-15.1301 -19.8986 -3.85186e-31
2.32497 -16.5265 3.7506
5.11343 -23.1857 3.29504
4.75272 -16.9744 4.39644
-1.71649 -22.8871 4.02107
14.6145 -20.1315 -1.02584
15.2964 -19.6006 -1.1428
12.3803 -21.4627 1.44771
16.6529 -18.0145 2.07293
20.5696 -13.5583 1.82966
18.1035 -5.77789 -4.89963
24.1282 -4.3255 -2.11975
24.2365 -3.52764 2.17348
24.2641 -2.63775 2.31653
18.2031 1.68303 4.67239
24.2574 1.11292 2.54587
0.456055 17.1142 4.08338
-0.670664 24.0336 2.91137
23.0916 6.05933 3.13606
22.7442 6.76909 3.30598
7.11208 14.6438 3.32043
9.65445 23.0553 -3.85186e-31
14.8402 18.3894 3.42138
-4.32346 24.4358 -1.29993
-18.127 13.9246 4.09041
-18.6076 13.4163 4.00868
-21.8482 12.144 -3.85186e-31
-20.791 10.8069 3.61653
-23.0309 9.7228 -3.85186e-31
-23.4249 8.71321 -0.0748114
-16.8129 8.55512 3.08421
-24.0568 0.860102 2.87238
-24.1641 0 2.76531
16.5677 -10.8315 4.98947
-17.5279 1.35606 4.37491
11.6385 -21.6379 2.01473
-12.8073 16.5293 4.89238

CELLS 0 0

CELL_TYPES 0

CELL_DATA 0
SCALARS CellEntityIds int 1
LOOKUP_TABLE default
